<?xml version="1.0"?>
<VTKFile type="UnstructuredGrid"  version="0.1"  >
<UnstructuredGrid>
<Piece  NumberOfPoints="2121" NumberOfCells="4000">
<Points>
<DataArray  type="Float64"  NumberOfComponents="3"  format="ascii">0 0 0  0.08 0 0  0.16 0 0  0.24 0 0  0.32 0 0  0.4 0 0  0.48 0 0  0.5600000000000001 0 0  0.64 0 0  0.72 0 0  0.8 0 0  0.88 0 0  0.96 0 0  1.04 0 0  1.12 0 0  1.2 0 0  1.28 0 0  1.36 0 0  1.44 0 0  1.52 0 0  1.6 0 0  1.68 0 0  1.76 0 0  1.84 0 0  1.92 0 0  2 0 0  2.08 0 0  2.16 0 0  2.24 0 0  2.32 0 0  2.4 0 0  2.48 0 0  2.56 0 0  2.64 0 0  2.72 0 0  2.8 0 0  2.88 0 0  2.96 0 0  3.04 0 0  3.12 0 0  3.2 0 0  3.28 0 0  3.36 0 0  3.44 0 0  3.52 0 0  3.6 0 0  3.68 0 0  3.76 0 0  3.84 0 0  3.92 0 0  4 0 0  4.08 0 0  4.16 0 0  4.24 0 0  4.32 0 0  4.4 0 0  4.48 0 0  4.56 0 0  4.64 0 0  4.72 0 0  4.8 0 0  4.88 0 0  4.96 0 0  5.04 0 0  5.12 0 0  5.2 0 0  5.28 0 0  5.36 0 0  5.44 0 0  5.52 0 0  5.6 0 0  5.68 0 0  5.76 0 0  5.84 0 0  5.92 0 0  6 0 0  6.08 0 0  6.16 0 0  6.24 0 0  6.32 0 0  6.4 0 0  6.48 0 0  6.56 0 0  6.64 0 0  6.72 0 0  6.8 0 0  6.88 0 0  6.96 0 0  7.04 0 0  7.12 0 0  7.2 0 0  7.28 0 0  7.36 0 0  7.44 0 0  7.52 0 0  7.6 0 0  7.68 0 0  7.76 0 0  7.84 0 0  7.92 0 0  8 0 0  0 0.025 0  0.08 0.025 0  0.16 0.025 0  0.24 0.025 0  0.32 0.025 0  0.4 0.025 0  0.48 0.025 0  0.5600000000000001 0.025 0  0.64 0.025 0  0.72 0.025 0  0.8 0.025 0  0.88 0.025 0  0.96 0.025 0  1.04 0.025 0  1.12 0.025 0  1.2 0.025 0  1.28 0.025 0  1.36 0.025 0  1.44 0.025 0  1.52 0.025 0  1.6 0.025 0  1.68 0.025 0  1.76 0.025 0  1.84 0.025 0  1.92 0.025 0  2 0.025 0  2.08 0.025 0  2.16 0.025 0  2.24 0.025 0  2.32 0.025 0  2.4 0.025 0  2.48 0.025 0  2.56 0.025 0  2.64 0.025 0  2.72 0.025 0  2.8 0.025 0  2.88 0.025 0  2.96 0.025 0  3.04 0.025 0  3.12 0.025 0  3.2 0.025 0  3.28 0.025 0  3.36 0.025 0  3.44 0.025 0  3.52 0.025 0  3.6 0.025 0  3.68 0.025 0  3.76 0.025 0  3.84 0.025 0  3.92 0.025 0  4 0.025 0  4.08 0.025 0  4.16 0.025 0  4.24 0.025 0  4.32 0.025 0  4.4 0.025 0  4.48 0.025 0  4.56 0.025 0  4.64 0.025 0  4.72 0.025 0  4.8 0.025 0  4.88 0.025 0  4.96 0.025 0  5.04 0.025 0  5.12 0.025 0  5.2 0.025 0  5.28 0.025 0  5.36 0.025 0  5.44 0.025 0  5.52 0.025 0  5.6 0.025 0  5.68 0.025 0  5.76 0.025 0  5.84 0.025 0  5.92 0.025 0  6 0.025 0  6.08 0.025 0  6.16 0.025 0  6.24 0.025 0  6.32 0.025 0  6.4 0.025 0  6.48 0.025 0  6.56 0.025 0  6.64 0.025 0  6.72 0.025 0  6.8 0.025 0  6.88 0.025 0  6.96 0.025 0  7.04 0.025 0  7.12 0.025 0  7.2 0.025 0  7.28 0.025 0  7.36 0.025 0  7.44 0.025 0  7.52 0.025 0  7.6 0.025 0  7.68 0.025 0  7.76 0.025 0  7.84 0.025 0  7.92 0.025 0  8 0.025 0  0 0.05 0  0.08 0.05 0  0.16 0.05 0  0.24 0.05 0  0.32 0.05 0  0.4 0.05 0  0.48 0.05 0  0.5600000000000001 0.05 0  0.64 0.05 0  0.72 0.05 0  0.8 0.05 0  0.88 0.05 0  0.96 0.05 0  1.04 0.05 0  1.12 0.05 0  1.2 0.05 0  1.28 0.05 0  1.36 0.05 0  1.44 0.05 0  1.52 0.05 0  1.6 0.05 0  1.68 0.05 0  1.76 0.05 0  1.84 0.05 0  1.92 0.05 0  2 0.05 0  2.08 0.05 0  2.16 0.05 0  2.24 0.05 0  2.32 0.05 0  2.4 0.05 0  2.48 0.05 0  2.56 0.05 0  2.64 0.05 0  2.72 0.05 0  2.8 0.05 0  2.88 0.05 0  2.96 0.05 0  3.04 0.05 0  3.12 0.05 0  3.2 0.05 0  3.28 0.05 0  3.36 0.05 0  3.44 0.05 0  3.52 0.05 0  3.6 0.05 0  3.68 0.05 0  3.76 0.05 0  3.84 0.05 0  3.92 0.05 0  4 0.05 0  4.08 0.05 0  4.16 0.05 0  4.24 0.05 0  4.32 0.05 0  4.4 0.05 0  4.48 0.05 0  4.56 0.05 0  4.64 0.05 0  4.72 0.05 0  4.8 0.05 0  4.88 0.05 0  4.96 0.05 0  5.04 0.05 0  5.12 0.05 0  5.2 0.05 0  5.28 0.05 0  5.36 0.05 0  5.44 0.05 0  5.52 0.05 0  5.6 0.05 0  5.68 0.05 0  5.76 0.05 0  5.84 0.05 0  5.92 0.05 0  6 0.05 0  6.08 0.05 0  6.16 0.05 0  6.24 0.05 0  6.32 0.05 0  6.4 0.05 0  6.48 0.05 0  6.56 0.05 0  6.64 0.05 0  6.72 0.05 0  6.8 0.05 0  6.88 0.05 0  6.96 0.05 0  7.04 0.05 0  7.12 0.05 0  7.2 0.05 0  7.28 0.05 0  7.36 0.05 0  7.44 0.05 0  7.52 0.05 0  7.6 0.05 0  7.68 0.05 0  7.76 0.05 0  7.84 0.05 0  7.92 0.05 0  8 0.05 0  0 0.075 0  0.08 0.075 0  0.16 0.075 0  0.24 0.075 0  0.32 0.075 0  0.4 0.075 0  0.48 0.075 0  0.5600000000000001 0.075 0  0.64 0.075 0  0.72 0.075 0  0.8 0.075 0  0.88 0.075 0  0.96 0.075 0  1.04 0.075 0  1.12 0.075 0  1.2 0.075 0  1.28 0.075 0  1.36 0.075 0  1.44 0.075 0  1.52 0.075 0  1.6 0.075 0  1.68 0.075 0  1.76 0.075 0  1.84 0.075 0  1.92 0.075 0  2 0.075 0  2.08 0.075 0  2.16 0.075 0  2.24 0.075 0  2.32 0.075 0  2.4 0.075 0  2.48 0.075 0  2.56 0.075 0  2.64 0.075 0  2.72 0.075 0  2.8 0.075 0  2.88 0.075 0  2.96 0.075 0  3.04 0.075 0  3.12 0.075 0  3.2 0.075 0  3.28 0.075 0  3.36 0.075 0  3.44 0.075 0  3.52 0.075 0  3.6 0.075 0  3.68 0.075 0  3.76 0.075 0  3.84 0.075 0  3.92 0.075 0  4 0.075 0  4.08 0.075 0  4.16 0.075 0  4.24 0.075 0  4.32 0.075 0  4.4 0.075 0  4.48 0.075 0  4.56 0.075 0  4.64 0.075 0  4.72 0.075 0  4.8 0.075 0  4.88 0.075 0  4.96 0.075 0  5.04 0.075 0  5.12 0.075 0  5.2 0.075 0  5.28 0.075 0  5.36 0.075 0  5.44 0.075 0  5.52 0.075 0  5.6 0.075 0  5.68 0.075 0  5.76 0.075 0  5.84 0.075 0  5.92 0.075 0  6 0.075 0  6.08 0.075 0  6.16 0.075 0  6.24 0.075 0  6.32 0.075 0  6.4 0.075 0  6.48 0.075 0  6.56 0.075 0  6.64 0.075 0  6.72 0.075 0  6.8 0.075 0  6.88 0.075 0  6.96 0.075 0  7.04 0.075 0  7.12 0.075 0  7.2 0.075 0  7.28 0.075 0  7.36 0.075 0  7.44 0.075 0  7.52 0.075 0  7.6 0.075 0  7.68 0.075 0  7.76 0.075 0  7.84 0.075 0  7.92 0.075 0  8 0.075 0  0 0.1 0  0.08 0.1 0  0.16 0.1 0  0.24 0.1 0  0.32 0.1 0  0.4 0.1 0  0.48 0.1 0  0.5600000000000001 0.1 0  0.64 0.1 0  0.72 0.1 0  0.8 0.1 0  0.88 0.1 0  0.96 0.1 0  1.04 0.1 0  1.12 0.1 0  1.2 0.1 0  1.28 0.1 0  1.36 0.1 0  1.44 0.1 0  1.52 0.1 0  1.6 0.1 0  1.68 0.1 0  1.76 0.1 0  1.84 0.1 0  1.92 0.1 0  2 0.1 0  2.08 0.1 0  2.16 0.1 0  2.24 0.1 0  2.32 0.1 0  2.4 0.1 0  2.48 0.1 0  2.56 0.1 0  2.64 0.1 0  2.72 0.1 0  2.8 0.1 0  2.88 0.1 0  2.96 0.1 0  3.04 0.1 0  3.12 0.1 0  3.2 0.1 0  3.28 0.1 0  3.36 0.1 0  3.44 0.1 0  3.52 0.1 0  3.6 0.1 0  3.68 0.1 0  3.76 0.1 0  3.84 0.1 0  3.92 0.1 0  4 0.1 0  4.08 0.1 0  4.16 0.1 0  4.24 0.1 0  4.32 0.1 0  4.4 0.1 0  4.48 0.1 0  4.56 0.1 0  4.64 0.1 0  4.72 0.1 0  4.8 0.1 0  4.88 0.1 0  4.96 0.1 0  5.04 0.1 0  5.12 0.1 0  5.2 0.1 0  5.28 0.1 0  5.36 0.1 0  5.44 0.1 0  5.52 0.1 0  5.6 0.1 0  5.68 0.1 0  5.76 0.1 0  5.84 0.1 0  5.92 0.1 0  6 0.1 0  6.08 0.1 0  6.16 0.1 0  6.24 0.1 0  6.32 0.1 0  6.4 0.1 0  6.48 0.1 0  6.56 0.1 0  6.64 0.1 0  6.72 0.1 0  6.8 0.1 0  6.88 0.1 0  6.96 0.1 0  7.04 0.1 0  7.12 0.1 0  7.2 0.1 0  7.28 0.1 0  7.36 0.1 0  7.44 0.1 0  7.52 0.1 0  7.6 0.1 0  7.68 0.1 0  7.76 0.1 0  7.84 0.1 0  7.92 0.1 0  8 0.1 0  0 0.125 0  0.08 0.125 0  0.16 0.125 0  0.24 0.125 0  0.32 0.125 0  0.4 0.125 0  0.48 0.125 0  0.5600000000000001 0.125 0  0.64 0.125 0  0.72 0.125 0  0.8 0.125 0  0.88 0.125 0  0.96 0.125 0  1.04 0.125 0  1.12 0.125 0  1.2 0.125 0  1.28 0.125 0  1.36 0.125 0  1.44 0.125 0  1.52 0.125 0  1.6 0.125 0  1.68 0.125 0  1.76 0.125 0  1.84 0.125 0  1.92 0.125 0  2 0.125 0  2.08 0.125 0  2.16 0.125 0  2.24 0.125 0  2.32 0.125 0  2.4 0.125 0  2.48 0.125 0  2.56 0.125 0  2.64 0.125 0  2.72 0.125 0  2.8 0.125 0  2.88 0.125 0  2.96 0.125 0  3.04 0.125 0  3.12 0.125 0  3.2 0.125 0  3.28 0.125 0  3.36 0.125 0  3.44 0.125 0  3.52 0.125 0  3.6 0.125 0  3.68 0.125 0  3.76 0.125 0  3.84 0.125 0  3.92 0.125 0  4 0.125 0  4.08 0.125 0  4.16 0.125 0  4.24 0.125 0  4.32 0.125 0  4.4 0.125 0  4.48 0.125 0  4.56 0.125 0  4.64 0.125 0  4.72 0.125 0  4.8 0.125 0  4.88 0.125 0  4.96 0.125 0  5.04 0.125 0  5.12 0.125 0  5.2 0.125 0  5.28 0.125 0  5.36 0.125 0  5.44 0.125 0  5.52 0.125 0  5.6 0.125 0  5.68 0.125 0  5.76 0.125 0  5.84 0.125 0  5.92 0.125 0  6 0.125 0  6.08 0.125 0  6.16 0.125 0  6.24 0.125 0  6.32 0.125 0  6.4 0.125 0  6.48 0.125 0  6.56 0.125 0  6.64 0.125 0  6.72 0.125 0  6.8 0.125 0  6.88 0.125 0  6.96 0.125 0  7.04 0.125 0  7.12 0.125 0  7.2 0.125 0  7.28 0.125 0  7.36 0.125 0  7.44 0.125 0  7.52 0.125 0  7.6 0.125 0  7.68 0.125 0  7.76 0.125 0  7.84 0.125 0  7.92 0.125 0  8 0.125 0  0 0.15 0  0.08 0.15 0  0.16 0.15 0  0.24 0.15 0  0.32 0.15 0  0.4 0.15 0  0.48 0.15 0  0.5600000000000001 0.15 0  0.64 0.15 0  0.72 0.15 0  0.8 0.15 0  0.88 0.15 0  0.96 0.15 0  1.04 0.15 0  1.12 0.15 0  1.2 0.15 0  1.28 0.15 0  1.36 0.15 0  1.44 0.15 0  1.52 0.15 0  1.6 0.15 0  1.68 0.15 0  1.76 0.15 0  1.84 0.15 0  1.92 0.15 0  2 0.15 0  2.08 0.15 0  2.16 0.15 0  2.24 0.15 0  2.32 0.15 0  2.4 0.15 0  2.48 0.15 0  2.56 0.15 0  2.64 0.15 0  2.72 0.15 0  2.8 0.15 0  2.88 0.15 0  2.96 0.15 0  3.04 0.15 0  3.12 0.15 0  3.2 0.15 0  3.28 0.15 0  3.36 0.15 0  3.44 0.15 0  3.52 0.15 0  3.6 0.15 0  3.68 0.15 0  3.76 0.15 0  3.84 0.15 0  3.92 0.15 0  4 0.15 0  4.08 0.15 0  4.16 0.15 0  4.24 0.15 0  4.32 0.15 0  4.4 0.15 0  4.48 0.15 0  4.56 0.15 0  4.64 0.15 0  4.72 0.15 0  4.8 0.15 0  4.88 0.15 0  4.96 0.15 0  5.04 0.15 0  5.12 0.15 0  5.2 0.15 0  5.28 0.15 0  5.36 0.15 0  5.44 0.15 0  5.52 0.15 0  5.6 0.15 0  5.68 0.15 0  5.76 0.15 0  5.84 0.15 0  5.92 0.15 0  6 0.15 0  6.08 0.15 0  6.16 0.15 0  6.24 0.15 0  6.32 0.15 0  6.4 0.15 0  6.48 0.15 0  6.56 0.15 0  6.64 0.15 0  6.72 0.15 0  6.8 0.15 0  6.88 0.15 0  6.96 0.15 0  7.04 0.15 0  7.12 0.15 0  7.2 0.15 0  7.28 0.15 0  7.36 0.15 0  7.44 0.15 0  7.52 0.15 0  7.6 0.15 0  7.68 0.15 0  7.76 0.15 0  7.84 0.15 0  7.92 0.15 0  8 0.15 0  0 0.175 0  0.08 0.175 0  0.16 0.175 0  0.24 0.175 0  0.32 0.175 0  0.4 0.175 0  0.48 0.175 0  0.5600000000000001 0.175 0  0.64 0.175 0  0.72 0.175 0  0.8 0.175 0  0.88 0.175 0  0.96 0.175 0  1.04 0.175 0  1.12 0.175 0  1.2 0.175 0  1.28 0.175 0  1.36 0.175 0  1.44 0.175 0  1.52 0.175 0  1.6 0.175 0  1.68 0.175 0  1.76 0.175 0  1.84 0.175 0  1.92 0.175 0  2 0.175 0  2.08 0.175 0  2.16 0.175 0  2.24 0.175 0  2.32 0.175 0  2.4 0.175 0  2.48 0.175 0  2.56 0.175 0  2.64 0.175 0  2.72 0.175 0  2.8 0.175 0  2.88 0.175 0  2.96 0.175 0  3.04 0.175 0  3.12 0.175 0  3.2 0.175 0  3.28 0.175 0  3.36 0.175 0  3.44 0.175 0  3.52 0.175 0  3.6 0.175 0  3.68 0.175 0  3.76 0.175 0  3.84 0.175 0  3.92 0.175 0  4 0.175 0  4.08 0.175 0  4.16 0.175 0  4.24 0.175 0  4.32 0.175 0  4.4 0.175 0  4.48 0.175 0  4.56 0.175 0  4
[...]
<PointData  Scalars="Prior"> 
<DataArray  type="Float64"  Name="Prior"  format="ascii">5.0373287908459517e+01  5.0281592964840094e+01  5.0059740042858053e+01  4.9728778055891759e+01  4.9305742921896147e+01  4.8805915410502941e+01  4.8243171566338503e+01  4.7629995907913369e+01  4.6977493552097620e+01  4.6295452082002583e+01  4.5592437652904799e+01  4.4875905222994078e+01  4.4152310030269689e+01  4.3427213824150634e+01  4.2705383169104927e+01  4.1990879075540576e+01  4.1287138104563667e+01  4.0597045458684633e+01  3.9923000695674894e+01  3.9266976718694565e+01  3.8630572669222211e+01  3.8015061305395491e+01  3.7421431400681286e+01  3.6850425650874087e+01  3.6302574533252667e+01  3.5778226520125038e+01  3.5277575011803968e+01  3.4800682319494413e+01  3.4347500997578585e+01  3.3917892795198973e+01  3.3511645472721632e+01  3.3128487703374169e+01  3.2768102260072538e+01  3.2430137667284114e+01  3.2114218480207747e+01  3.1819954337364777e+01  3.1546947918047167e+01  3.1294801922241152e+01  3.1063125179135838e+01  3.0851537978475175e+01  3.0659676709067725e+01  3.0487197879818236e+01  3.0333781589080733e+01  3.0199134501261064e+01  3.0082992382471989e+01  2.9985122237827365e+01  2.9905324091087898e+01  2.9843432437329522e+01  2.9799317395766945e+01  2.9772885585018173e+01  2.9764080736038878e+01  2.9772884055528088e+01  2.9799314346510435e+01  2.9843427888073997e+01  2.9905318072074795e+01  2.9985114790079813e+01  3.0082983558781510e+01  3.0199124367056541e+01  3.0333770223634904e+01  3.0487185377989924e+01  3.0659663182540442e+01  3.0851523557867502e+01  3.1063110016264819e+01  3.1294786192617330e+01  3.1546931823781232e+01  3.1819938110365140e+01  3.2114202385803203e+01  3.2430122008385815e+01  3.2768087381641791e+01  3.3128473997482239e+01  3.3511633384149526e+01  3.3917882827759072e+01  3.4347493721016676e+01  3.4800678377239223e+01  3.5277575129397839e+01  3.5778231514720709e+01  3.6302585323853904e+01  3.6850443269540648e+01  3.7421457004742706e+01  3.8015096190358456e+01  3.8630618281808381e+01  3.9267034669445664e+01  3.9923072769182994e+01  4.0597133617725270e+01  4.1287244482419759e+01  4.1991005944334432e+01  4.2705532862871451e+01  4.3427388577832588e+01  4.4152511664431302e+01  4.4876134548568622e+01  4.5592693371209066e+01  4.6295728781763657e+01  4.6977778098497033e+01  4.7630260983470038e+01  4.8243364158951728e+01  4.8805936181140936e+01  4.9305408092739704e+01  4.9727742275683909e+01  5.0057301457343790e+01  5.0275910917238640e+01  5.0354100280851675e+01  5.0367430061895519e+01  5.0279441451686665e+01  5.0058057575895056e+01  4.9727256154724152e+01  4.9304290621799993e+01  4.8804493132727124e+01  4.8241761198816192e+01  4.7628589322987786e+01  4.6976087253347885e+01  4.6294044668929082e+01  4.5591028647123878e+01  4.4874494538781249e+01  4.4150897741055282e+01  4.3425800061518146e+01  4.2703968079912983e+01  4.1989462804319977e+01  4.1285720786617532e+01  4.0595627218032114e+01  3.9921581644545562e+01  3.9265556958278445e+01  3.8629152290331092e+01  3.8013640389358152e+01  3.7420010020253095e+01  3.6849003871022454e+01  3.6301152411944187e+01  3.5776804109001453e+01  3.5276152356829314e+01  3.4799259461526852e+01  3.4346077972893056e+01  3.3916469635970273e+01  3.3510222207432918e+01  3.3127064357221599e+01  3.2766678855294913e+01  3.2428714223475673e+01  3.2112795014619778e+01  3.1818530865149103e+01  3.1545524452454323e+01  3.1293378474881983e+01  3.1061701760108704e+01  3.0850114596559123e+01  3.0658253371856532e+01  3.0485774593839707e+01  3.0332358359918857e+01  3.0197711333668085e+01  3.0081569280393854e+01  2.9983699204547069e+01  2.9903901129241508e+01  2.9842009548972264e+01  2.9797894582410329e+01  2.9771462847643893e+01  2.9762658075141548e+01  2.9771461471109983e+01  2.9797891838079547e+01  2.9842005454656857e+01  2.9903895712134933e+01  2.9983692501579903e+01  3.0081561339074661e+01  3.0197702212880145e+01  3.0332348131022499e+01  3.0485763342194485e+01  3.0658241197985017e+01  3.0850101618020421e+01  3.1061688113534316e+01  3.1293364318220561e+01  3.1545509967623705e+01  3.1818516260843690e+01  3.2112780529656860e+01  3.2428700130473302e+01  3.2766665464705412e+01  3.3127052021935810e+01  3.3510211327744194e+01  3.3916460665307611e+01  3.4346071424036104e+01  3.4799255913562853e+01  3.5276152462746211e+01  3.5776808604242653e+01  3.6301162123583374e+01  3.6849019727832655e+01  3.7420033063641746e+01  3.8013671784874283e+01  3.8629193339184098e+01  3.9265609108295230e+01  3.9921646498555610e+01  4.0595706536119195e+01  4.1285816476647007e+01  4.1989576888144043e+01  4.2704102615172516e+01  4.3425956979647090e+01  4.4151078532750581e+01  4.4874699662170066e+01  4.5591256436132802e+01  4.6294289346734203e+01  4.6976335350382911e+01  4.7628813264300469e+01  4.8241907859246439e+01  4.8804463298889338e+01  4.9303901084283531e+01  4.9726163721682354e+01  5.0055575265067262e+01  5.0273935276571919e+01  5.0354269228106752e+01  5.0359344236622398e+01  5.0274339271688909e+01  5.0054122895168462e+01  4.9723800857223289e+01  4.9301050675772480e+01  4.8801349925147868e+01  4.8238660021432644e+01  4.7625505331625803e+01  4.6973009452710507e+01  4.6290968343088778e+01  4.5587951864914139e+01  4.4871416579810571e+01  4.4147818400828783e+01  4.3422719349023723e+01  4.2700886087279677e+01  4.1986379651271655e+01  4.1282636597119087e+01  4.0592542110622482e+01  3.9918495729030155e+01  3.9262470334593452e+01  3.8626065048698386e+01  3.8010552610830736e+01  3.7416921777444017e+01  3.6845915228834464e+01  3.6298063428308950e+01  3.5773714835554884e+01  3.5273062839542952e+01  3.4796169741243403e+01  3.4342988085881323e+01  3.3913379614412818e+01  3.3507132079818966e+01  3.3123974148737602e+01  3.2763588588187559e+01  3.2425623917332189e+01  3.2109704686699075e+01  3.1815440530600046e+01  3.1542434124535170e+01  3.1290288165188908e+01  3.1058611478753114e+01  3.0847024352314147e+01  3.0655163172315902e+01  3.0482684445550106e+01  3.0329268268430578e+01  3.0194621303731665e+01  3.0078479315988606e+01  2.9980609308938806e+01  2.9900811305070878e+01  2.9838919798286685e+01  2.9794804906719630e+01  2.9768373247943334e+01  2.9759568551918630e+01  2.9768372024363757e+01  2.9794802467322359e+01  2.9838916158898051e+01  2.9900806489868970e+01  2.9980603350749110e+01  3.0078472257041135e+01  3.0194613196372782e+01  3.0329259176075549e+01  3.0482674444071829e+01  3.0655152351098899e+01  3.0847012815837765e+01  3.1058599348470345e+01  3.1290275581495994e+01  3.1542421249132747e+01  3.1815427548993615e+01  3.2109691811179985e+01  3.2425611390224674e+01  3.2763576685436924e+01  3.3123963184050666e+01  3.3507122409001724e+01  3.3913371640517859e+01  3.4342982264718174e+01  3.4796166587542182e+01  3.5273062933749657e+01  3.5773718831416517e+01  3.6298072060959257e+01  3.6845929323777867e+01  3.7416942260220701e+01  3.8010580517157571e+01  3.8626101534507363e+01  3.9262516685437582e+01  3.9918553366910317e+01  4.0592612594733829e+01  4.1282721613153079e+01  4.1986480977330856e+01  4.2701005516435146e+01  4.3422858531328451e+01  4.4147978537926122e+01  4.4871597851895913e+01  4.5588152375186404e+01  4.6291182197606894e+01  4.6973223297543633e+01  4.7625692151565303e+01  4.8238768076389668e+01  4.8801282966278656e+01  4.9300631920499498e+01  4.9722703787211167e+01  5.0051723424980480e+01  5.0269382441867080e+01  5.0349997992671355e+01  5.0350532584876710e+01  5.0267757310773149e+01  5.0049042444216028e+01  4.9719437434346929e+01  4.9297022483149618e+01  4.8797475037179552e+01  4.8234853012887477e+01  4.7621727088752259e+01  4.6969242528688703e+01  4.6287205154852280e+01  4.5584189218816185e+01  4.4867653200987100e+01  4.4144053840429287e+01  4.3418953507402613e+01  4.2697119007692599e+01  4.1982611431098398e+01  4.1278867349891868e+01  4.0588771950057478e+01  3.9914724762539670e+01  3.9258698660985232e+01  3.8622292757635556e+01  3.8006779783105536e+01  3.7413148485533426e+01  3.6842141537597279e+01  3.6294289395638074e+01  3.5769940513074822e+01  3.5269288273208865e+01  3.4792394971912827e+01  3.4339213149833419e+01  3.3909604543820222e+01  3.3503356903168232e+01  3.3120198891216766e+01  3.2759813272039459e+01  3.2421848562157315e+01  3.2105929309743253e+01  3.1811665147007265e+01  3.1538658747576225e+01  3.1286512806461499e+01  3.1054836148363673e+01  3.0843249059030740e+01  3.0651387923754104e+01  3.0478909248206168e+01  3.0325493127909322e+01  3.0190846224758740e+01  3.0074704302541527e+01  2.9976834364279515e+01  2.9897036431853842e+01  2.9835144998563450e+01  2.9791030182002284e+01  2.9764598599205833e+01  2.9755793979660691e+01  2.9764597528579959e+01  2.9791028047527981e+01  2.9835141814099391e+01  2.9897032218562575e+01  2.9976829150885628e+01  3.0074698125978660e+01  3.0190839130830327e+01  3.0325485172095664e+01  3.0478900496910732e+01  3.0651378455177159e+01  3.0843238964619776e+01  3.1054825534366781e+01  3.1286501795734264e+01  3.1538647481607484e+01  3.1811653788106621e+01  3.2105918043664424e+01  3.2421837600939384e+01  3.2759802857129671e+01  3.3120189297123048e+01  3.3503348441213070e+01  3.3909597566683686e+01  3.4339208056346699e+01  3.4792392212469984e+01  3.5269288355691437e+01  3.5769944009527649e+01  3.6294296949273146e+01  3.6842153870671609e+01  3.7413166407778178e+01  3.8006804200505080e+01  3.8622324681062196e+01  3.9258739214190989e+01  3.9914775187542375e+01  4.0588833606865236e+01  4.1278941705328897e+01  4.1982700025561172e+01  4.2697223381206868e+01  4.3419075049981195e+01  4.4144193504035194e+01  4.4867810960209994e+01  4.5584363078333013e+01  4.6287389344361145e+01  4.6969424247304360e+01  4.7621880676125926e+01  4.8234929570201864e+01  4.8797384009625247e+01  4.9296598923898884e+01  4.9718383348307945e+01  5.0046823817008928e+01  5.0263492049018588e+01  5.0343712004883621e+01  5.0341797655086438e+01  5.0260662021161885e+01  5.0043513858743367e+01  4.9714762803971873e+01  4.9292765221360973e+01  4.8793412104743055e+01  4.8230877166936665e+01  4.7617788736215637e+01  4.6965319406576064e+01  4.6283287514847729e+01  4.5580272903194668e+01  4.4863736506113959e+01  4.4140136125770660e+01  4.3415034586688627e+01  4.2693198884472004e+01  4.1978690184248201e+01  4.1274945084201754e+01  4.0584848775024092e+01  3.9910800783547018e+01  3.9254773975811446e+01  3.8618367455457268e+01  3.8002853944478886e+01  3.7409222182820969e+01  3.6838214835589248e+01  3.6290362352216668e+01  3.5766013179842979e+01  3.5265360696126216e+01  3.4788467191832453e+01  3.4335285203030779e+01  3.3905676462471462e+01  3.3499428715757567e+01  3.3116270622941599e+01  3.2755884945132181e+01  3.2417920196223022e+01  3.2102000922025979e+01  3.1807736752661501e+01  3.1534730359857395e+01  3.1282584436977039e+01  3.1050907807208407e+01  3.0839320754994663e+01  3.0647459664419884e+01  3.0474981040099806e+01  3.0321564976630697e+01  3.0186918135034251e+01  3.0070776278342528e+01  2.9972906408876305e+01  2.9893108547885749e+01  2.9831217188086065e+01  2.9787102446525260e+01  2.9760670939713631e+01  2.9751866396644402e+01  2.9760670022042902e+01  2.9787100616979522e+01  2.9831214458551958e+01  2.9893104936508966e+01  2.9972901940263583e+01  3.0070770984156908e+01  3.0186912054537117e+01  3.0321558157361473e+01  3.0474973538993282e+01  3.0647451548497628e+01  3.0839312102653640e+01  3.1050898709515451e+01  3.1282574999220330e+01  3.1534720703322076e+01  3.1807727016460458e+01  3.2101991265389103e+01  3.2417910800887995e+01  3.2755876018057826e+01  3.3116262399429829e+01  3.3499421462659136e+01  3.3905670482077468e+01  3.4335280837204948e+01  3.4788464826625479e+01  3.5265360766861249e+01  3.5766016176855487e+01  3.6290368826806898e+01  3.6838225406795360e+01  3.7409237544604210e+01  3.8002874873185647e+01  3.8618394817123402e+01  3.9254808732794579e+01  3.9910843998695398e+01  4.0584901610795932e+01  4.1275008791571700e+01  4.1978766071659877e+01  4.2693288249667489e+01  4.3415138579662568e+01  4.4140255485787584e+01  4.4863871070140021e+01  4.5580420701811427e+01  4.6283443128336422e+01  4.6965471000035215e+01  4.7617912754767318e+01  4.8230928920028639e+01  4.8793309237154965e+01  4.9292359258621126e+01  4.9713792622048175e+01  5.0041544530864286e+01  5.0257112268828124e+01  5.0336737031923604e+01  5.0333664016857163e+01  5.0253733044358128e+01  5.0038049708148854e+01  4.9710191116867087e+01  4.9288649531646570e+01  4.8789512756217540e+01  4.8227075807248305e+01  4.7614030001556365e+01  4.6961578274175466e+01  4.6279552958139597e+01  4.5576540178317785e+01  4.4860003640229102e+01  4.4136402353540113e+01  4.3411299663211459e+01  4.2689462785326818e+01  4.1974952974741335e+01  4.1271206862490303e+01  4.0581109647275881e+01  3.9907060853469353e+01  3.9251033340369354e+01  3.8614626203402977e+01  3.7999112156159825e+01  3.7405479930499190e+01  3.6834472184005854e+01  3.6286619359233683e+01  3.5762269897057095e+01  3.5261617169482626e+01  3.4784723462190442e+01  3.4331541306672761e+01  3.3901932431561733e+01  3.3495684578786772e+01  3.3112526405098087e+01  3.2752140668661760e+01  3.2414175880725445e+01  3.2098256584750203e+01  3.1803992408745341e+01  3.1530986022580947e+01  3.1278840117921796e+01  3.1047163516501335e+01  3.0835576501392204e+01  3.0643715455518599e+01  3.0471236882433860e+01  3.0317820875784257e+01  3.0183174095748825e+01  3.0067032304576824e+01  2.9969162503908297e+01  2.9889364714353697e+01  2.9827473428050631e+01  2.9783358761483584e+01  2.9756927330662666e+01  2.9748122864068215e+01  2.9756926565943438e+01  2.9783357236867797e+01  2.9827471153438189e+01  2.9889361704891357e+01  2.9969158780084367e+01  3.0067027892777041e+01  3.0183169028678172e+01  3.0317815193060071e+01  3.0471230631511776e+01  3.0643708692256830e+01  3.0835569291116055e+01  3.1047155935087048e+01  3.1278832253134592e+01  3.1530977975474926e+01  3.1803984295248966e+01  3.2098248537545842e+01  3.2414168051275979e+01  3.2752133229422789e+01  3.3112519552171484e+01  3.3495678534537966e+01  3.3901927447903162e+01  3.4331537668496750e+01  3.4784721491199882e+01  3.5261617228442425e+01  3.5762272394592863e+01  3.6286624754758655e+01  3.6834480993344521e+01  3.7405492731882525e+01  3.7999129596389984e+01  3.8614649003866418e+01  3.9251062302408016e+01  3.9907096861535514e+01  4.0581153667690906e+01  4.1271259933161154e+01  4.1975016177429559e+01  4.2689537185200287e+01  4.3411386188466885e+01  4.4136501564411489e+01  4.4860115297988102e+01  4.5576662452916217e+01  4.6279680987692124e+01  4.6961701567172241e+01  4.7614127793483711e+01  4.8227108851697366e+01  4.8789409094337628e+01  4.9288280872510747e+01  4.9709338179104478e+01  5.0036373543027416e+01  5.0250870852610618e+01  5.0329896833500584e+01  5.0326510865036205e+01  5.0247461464196697e+01  5.0033047712995590e+01  4.9706035983367109e+01  4.9284945329326121e+01  4.8786026558847304e+01  4.8223689387023022e+01  4.7610687350089059e+01  4.6958253880839138e+01  4.6276235504338452e+01  4.5573224755761281e+01  4.4856688185285456e+01  4.4133086051122056e+01  4.3407982241308872e+01  4.2686144204785975e+01  4.1971633292937796e+01  4.1267886173213043e+01  4.0577788054441001e+01  3.9903738459588482e+01  3.9247710241770918e+01  3.8611302488508684e+01  3.7995787905160007e+01  3.7402155215559219e+01  3.6831147069837058e+01  3.6283293903671222e+01  3.5758944151700213e+01  3.5258291180266475e+01  3.4781397269968949e+01  3.4328214947726892e+01  3.3898605938074063e+01  3.3492357979241469e+01  3.3109199724678909e+01  3.2748813929606705e+01  3.2410849102647461e+01  3.2094929784894667e+01  3.1800665602258231e+01  3.1527659222730154e+01  3.1275513336297248e+01  3.1043836763208510e+01  3.0832249785212351e+01  3.0640388784042948e+01  3.0467910262202093e+01  3.0314494312363561e+01  3.0179847593878151e+01  3.0063705868238099e+01  2.9965836136368033e+01  2.9886038418249527e+01  2.9824147205437786e+01  2.9780032613866684e+01  2.9753601259035541e+01  2.9744796868918474e+01  2.9753600647272584e+01  2.9780031394183144e+01  2.9824145385751756e+01  2.9886036010697644e+01  2.9965833157326532e+01  3.0063702338813474e+01  3.0179843540246434e+01  3.0314489766184124e+01  3.0467905261458448e+01  3.0640383373441544e+01  3.0832244017003330e+01  3.1043830698091874e+01  3.1275507044478587e+01  3.1527652785046644e+01  3.1800659111458735e+01  3.2094923347123434e+01  3.2410842839078541e+01  3.2748807978208681e+01  3.3109194242330602e+01  3.3492353143835658e+01  3.3898601951149502e+01  3.4328212037193040e+01  3.4781395693186596e+01  3.5258291227436011e+01  3.5758946149737383e+01  3.6283298220109636e+01  3.6831154117301672e+01  3.7402165456587824e+01  3.7995801857107850e+01  3.8611320728259678e+01  3.9247733409955465e+01  3.9903767262983813e+01  4.0577823264475548e+01  4.1267928617128852e+01  4.1971683830333802e+01  4.2686203676937794e+01  4.3408051370494860e+01  4.4133165248020404e+01  4.4856777189732320e+01  4.5573321976671323e+01  4.6276336819707879e+01  4.6958350474127933e+01  4.7610761847361012e+01  4.8223709056850453e+01  4.8785931675291877e+01  4.9284630567367763e+01  4.9705326184217505e+01  5.0031690536511363e+01  5.0245241997308007e+01  5.0323746208808366e+01  5.0320619432260870e+01  5.0242202895969143e+01  5.0028816094480810e+01  4.9702540079670840e+01  4.9281855687956977e+01  4.8783136948506858e+01  4.8220892313000917e+01  4.7607931191856309e+01  4.6955514906488247e+01  4.6273503094467003e+01  4.5570494263355336e+01  4.4853957636711613e+01  4.4130354657905045e+01  4.3405249736483590e+01  4.2683410548084140e+01  4.1968898539555191e+01  4.1265150415191144e+01  4.0575051394490799e+01  3.9901000999473297e+01  3.9244972077401869e+01  3.8608563708089797e+01  3.7993048588745346e+01  3.7399415435265276e+01  3.6828406890334357e+01  3.6280553382783651e+01  3.5756203341016835e+01  3.5255550125724369e+01  3.4778656012425309e+01  3.4325473523465512e+01  3.3895864379255919e+01  3.3489616314359907e+01  3.3106457978933186e+01  3.2746072125226846e+01  3.2408107259243010e+01  3.2092187919710369e+01  3.1797923730440075e+01  3.1524917357553019e+01  3.1272771489344549e+01  3.1041094944592796e+01  3.0829508003708490e+01  3.0637647047225105e+01  3.0465168576631836e+01  3.0311752683618369e+01  3.0177106026690851e+01  3.0060964366572694e+01  2.9963094703501437e+01  2.9883297056817824e+01  2.9821405917501536e+01  2.9777291400926099e+01  2.9750860122082582e+01  2.9742055808442988e+01  2.9750859663272060e+01  2.9777290486175392e+01  2.9821404552745346e+01  2.9883295251175561e+01  2.9963092469246828e+01  3.0060961719538131e+01  3.0177102986487114e+01  3.0311749273980148e+01  3.0465164826079402e+01  3.0637642989297614e+01  3.0829503677563274e+01  3.1041090395765504e+01  3.1272766770493842e+01  3.1524912529295268e+01  3.1797918862345139e+01  3.2092183091372867e+01  3.2408102561552695e+01  3.2746067661660874e+01  3.3106453867155956e+01  3.3489612687800189e+01  3.3895861389052634e+01  3.4325471340552468e+01  3.4778654829829144e+01  3.5255550161089943e+01  3.5756204839538789e+01  3.6280556620112598e+01  3.6828412175921464e+01  3.7399423115983652e+01  3.7993059052554848e+01  3.8608577387531128e+01  3.9244989452689794e+01  3.9901022600203255e+01  4.0575077798264665e+01  4.1265182240623446e+01  4.1968936427882888e+01  4.2683455123791106e+01  4.3405301529199562e+01  4.4130413953284467e+01  4.4854024198422557e+01  4.5570566822311172e+01  4.6273578420524771e+01  4.6955586134811270e+01  4.7607984838457952e+01  4.8220903041679442e+01  4.8783058721197165e+01  4.9281608098275584e+01  4.9701992571814259e+01  5.0027791734789069e+01  5.0240581558640329e+01  5.0318673540288202e+01  5.0316193359695852e+01  5.0238208975341081e+01  5.0025585412842133e+01  4.9699886800416600e+01  4.9279531327087859e+01  4.8780977469142655e+01  4.8218810026987100e+01  4.7605883338122879e+01  4.6953481579232012e+01  4.6271475276495494e+01  4.5568467958934598e+01  4.4851931128791193e+01  4.4128327255366500e+01  4.3403221207500181e+01  4.2681380864112000e+01  4.1966867759138289e+01  4.1263118631005575e+01  4.0573018709110293e+01  3.9898967514410046e+01  3.9242937888370008e+01  3.8606528903166229e+01  3.799101324790270