<?xml version="1.0"?>
<VTKFile type="UnstructuredGrid"  version="0.1"  >
<UnstructuredGrid>
<Piece  NumberOfPoints="2121" NumberOfCells="4000">
<Points>
<DataArray  type="Float64"  NumberOfComponents="3"  format="ascii">0 0 0  0.08 0 0  0.16 0 0  0.24 0 0  0.32 0 0  0.4 0 0  0.48 0 0  0.5600000000000001 0 0  0.64 0 0  0.72 0 0  0.8 0 0  0.88 0 0  0.96 0 0  1.04 0 0  1.12 0 0  1.2 0 0  1.28 0 0  1.36 0 0  1.44 0 0  1.52 0 0  1.6 0 0  1.68 0 0  1.76 0 0  1.84 0 0  1.92 0 0  2 0 0  2.08 0 0  2.16 0 0  2.24 0 0  2.32 0 0  2.4 0 0  2.48 0 0  2.56 0 0  2.64 0 0  2.72 0 0  2.8 0 0  2.88 0 0  2.96 0 0  3.04 0 0  3.12 0 0  3.2 0 0  3.28 0 0  3.36 0 0  3.44 0 0  3.52 0 0  3.6 0 0  3.68 0 0  3.76 0 0  3.84 0 0  3.92 0 0  4 0 0  4.08 0 0  4.16 0 0  4.24 0 0  4.32 0 0  4.4 0 0  4.48 0 0  4.56 0 0  4.64 0 0  4.72 0 0  4.8 0 0  4.88 0 0  4.96 0 0  5.04 0 0  5.12 0 0  5.2 0 0  5.28 0 0  5.36 0 0  5.44 0 0  5.52 0 0  5.6 0 0  5.68 0 0  5.76 0 0  5.84 0 0  5.92 0 0  6 0 0  6.08 0 0  6.16 0 0  6.24 0 0  6.32 0 0  6.4 0 0  6.48 0 0  6.56 0 0  6.64 0 0  6.72 0 0  6.8 0 0  6.88 0 0  6.96 0 0  7.04 0 0  7.12 0 0  7.2 0 0  7.28 0 0  7.36 0 0  7.44 0 0  7.52 0 0  7.6 0 0  7.68 0 0  7.76 0 0  7.84 0 0  7.92 0 0  8 0 0  0 0.025 0  0.08 0.025 0  0.16 0.025 0  0.24 0.025 0  0.32 0.025 0  0.4 0.025 0  0.48 0.025 0  0.5600000000000001 0.025 0  0.64 0.025 0  0.72 0.025 0  0.8 0.025 0  0.88 0.025 0  0.96 0.025 0  1.04 0.025 0  1.12 0.025 0  1.2 0.025 0  1.28 0.025 0  1.36 0.025 0  1.44 0.025 0  1.52 0.025 0  1.6 0.025 0  1.68 0.025 0  1.76 0.025 0  1.84 0.025 0  1.92 0.025 0  2 0.025 0  2.08 0.025 0  2.16 0.025 0  2.24 0.025 0  2.32 0.025 0  2.4 0.025 0  2.48 0.025 0  2.56 0.025 0  2.64 0.025 0  2.72 0.025 0  2.8 0.025 0  2.88 0.025 0  2.96 0.025 0  3.04 0.025 0  3.12 0.025 0  3.2 0.025 0  3.28 0.025 0  3.36 0.025 0  3.44 0.025 0  3.52 0.025 0  3.6 0.025 0  3.68 0.025 0  3.76 0.025 0  3.84 0.025 0  3.92 0.025 0  4 0.025 0  4.08 0.025 0  4.16 0.025 0  4.24 0.025 0  4.32 0.025 0  4.4 0.025 0  4.48 0.025 0  4.56 0.025 0  4.64 0.025 0  4.72 0.025 0  4.8 0.025 0  4.88 0.025 0  4.96 0.025 0  5.04 0.025 0  5.12 0.025 0  5.2 0.025 0  5.28 0.025 0  5.36 0.025 0  5.44 0.025 0  5.52 0.025 0  5.6 0.025 0  5.68 0.025 0  5.76 0.025 0  5.84 0.025 0  5.92 0.025 0  6 0.025 0  6.08 0.025 0  6.16 0.025 0  6.24 0.025 0  6.32 0.025 0  6.4 0.025 0  6.48 0.025 0  6.56 0.025 0  6.64 0.025 0  6.72 0.025 0  6.8 0.025 0  6.88 0.025 0  6.96 0.025 0  7.04 0.025 0  7.12 0.025 0  7.2 0.025 0  7.28 0.025 0  7.36 0.025 0  7.44 0.025 0  7.52 0.025 0  7.6 0.025 0  7.68 0.025 0  7.76 0.025 0  7.84 0.025 0  7.92 0.025 0  8 0.025 0  0 0.05 0  0.08 0.05 0  0.16 0.05 0  0.24 0.05 0  0.32 0.05 0  0.4 0.05 0  0.48 0.05 0  0.5600000000000001 0.05 0  0.64 0.05 0  0.72 0.05 0  0.8 0.05 0  0.88 0.05 0  0.96 0.05 0  1.04 0.05 0  1.12 0.05 0  1.2 0.05 0  1.28 0.05 0  1.36 0.05 0  1.44 0.05 0  1.52 0.05 0  1.6 0.05 0  1.68 0.05 0  1.76 0.05 0  1.84 0.05 0  1.92 0.05 0  2 0.05 0  2.08 0.05 0  2.16 0.05 0  2.24 0.05 0  2.32 0.05 0  2.4 0.05 0  2.48 0.05 0  2.56 0.05 0  2.64 0.05 0  2.72 0.05 0  2.8 0.05 0  2.88 0.05 0  2.96 0.05 0  3.04 0.05 0  3.12 0.05 0  3.2 0.05 0  3.28 0.05 0  3.36 0.05 0  3.44 0.05 0  3.52 0.05 0  3.6 0.05 0  3.68 0.05 0  3.76 0.05 0  3.84 0.05 0  3.92 0.05 0  4 0.05 0  4.08 0.05 0  4.16 0.05 0  4.24 0.05 0  4.32 0.05 0  4.4 0.05 0  4.48 0.05 0  4.56 0.05 0  4.64 0.05 0  4.72 0.05 0  4.8 0.05 0  4.88 0.05 0  4.96 0.05 0  5.04 0.05 0  5.12 0.05 0  5.2 0.05 0  5.28 0.05 0  5.36 0.05 0  5.44 0.05 0  5.52 0.05 0  5.6 0.05 0  5.68 0.05 0  5.76 0.05 0  5.84 0.05 0  5.92 0.05 0  6 0.05 0  6.08 0.05 0  6.16 0.05 0  6.24 0.05 0  6.32 0.05 0  6.4 0.05 0  6.48 0.05 0  6.56 0.05 0  6.64 0.05 0  6.72 0.05 0  6.8 0.05 0  6.88 0.05 0  6.96 0.05 0  7.04 0.05 0  7.12 0.05 0  7.2 0.05 0  7.28 0.05 0  7.36 0.05 0  7.44 0.05 0  7.52 0.05 0  7.6 0.05 0  7.68 0.05 0  7.76 0.05 0  7.84 0.05 0  7.92 0.05 0  8 0.05 0  0 0.075 0  0.08 0.075 0  0.16 0.075 0  0.24 0.075 0  0.32 0.075 0  0.4 0.075 0  0.48 0.075 0  0.5600000000000001 0.075 0  0.64 0.075 0  0.72 0.075 0  0.8 0.075 0  0.88 0.075 0  0.96 0.075 0  1.04 0.075 0  1.12 0.075 0  1.2 0.075 0  1.28 0.075 0  1.36 0.075 0  1.44 0.075 0  1.52 0.075 0  1.6 0.075 0  1.68 0.075 0  1.76 0.075 0  1.84 0.075 0  1.92 0.075 0  2 0.075 0  2.08 0.075 0  2.16 0.075 0  2.24 0.075 0  2.32 0.075 0  2.4 0.075 0  2.48 0.075 0  2.56 0.075 0  2.64 0.075 0  2.72 0.075 0  2.8 0.075 0  2.88 0.075 0  2.96 0.075 0  3.04 0.075 0  3.12 0.075 0  3.2 0.075 0  3.28 0.075 0  3.36 0.075 0  3.44 0.075 0  3.52 0.075 0  3.6 0.075 0  3.68 0.075 0  3.76 0.075 0  3.84 0.075 0  3.92 0.075 0  4 0.075 0  4.08 0.075 0  4.16 0.075 0  4.24 0.075 0  4.32 0.075 0  4.4 0.075 0  4.48 0.075 0  4.56 0.075 0  4.64 0.075 0  4.72 0.075 0  4.8 0.075 0  4.88 0.075 0  4.96 0.075 0  5.04 0.075 0  5.12 0.075 0  5.2 0.075 0  5.28 0.075 0  5.36 0.075 0  5.44 0.075 0  5.52 0.075 0  5.6 0.075 0  5.68 0.075 0  5.76 0.075 0  5.84 0.075 0  5.92 0.075 0  6 0.075 0  6.08 0.075 0  6.16 0.075 0  6.24 0.075 0  6.32 0.075 0  6.4 0.075 0  6.48 0.075 0  6.56 0.075 0  6.64 0.075 0  6.72 0.075 0  6.8 0.075 0  6.88 0.075 0  6.96 0.075 0  7.04 0.075 0  7.12 0.075 0  7.2 0.075 0  7.28 0.075 0  7.36 0.075 0  7.44 0.075 0  7.52 0.075 0  7.6 0.075 0  7.68 0.075 0  7.76 0.075 0  7.84 0.075 0  7.92 0.075 0  8 0.075 0  0 0.1 0  0.08 0.1 0  0.16 0.1 0  0.24 0.1 0  0.32 0.1 0  0.4 0.1 0  0.48 0.1 0  0.5600000000000001 0.1 0  0.64 0.1 0  0.72 0.1 0  0.8 0.1 0  0.88 0.1 0  0.96 0.1 0  1.04 0.1 0  1.12 0.1 0  1.2 0.1 0  1.28 0.1 0  1.36 0.1 0  1.44 0.1 0  1.52 0.1 0  1.6 0.1 0  1.68 0.1 0  1.76 0.1 0  1.84 0.1 0  1.92 0.1 0  2 0.1 0  2.08 0.1 0  2.16 0.1 0  2.24 0.1 0  2.32 0.1 0  2.4 0.1 0  2.48 0.1 0  2.56 0.1 0  2.64 0.1 0  2.72 0.1 0  2.8 0.1 0  2.88 0.1 0  2.96 0.1 0  3.04 0.1 0  3.12 0.1 0  3.2 0.1 0  3.28 0.1 0  3.36 0.1 0  3.44 0.1 0  3.52 0.1 0  3.6 0.1 0  3.68 0.1 0  3.76 0.1 0  3.84 0.1 0  3.92 0.1 0  4 0.1 0  4.08 0.1 0  4.16 0.1 0  4.24 0.1 0  4.32 0.1 0  4.4 0.1 0  4.48 0.1 0  4.56 0.1 0  4.64 0.1 0  4.72 0.1 0  4.8 0.1 0  4.88 0.1 0  4.96 0.1 0  5.04 0.1 0  5.12 0.1 0  5.2 0.1 0  5.28 0.1 0  5.36 0.1 0  5.44 0.1 0  5.52 0.1 0  5.6 0.1 0  5.68 0.1 0  5.76 0.1 0  5.84 0.1 0  5.92 0.1 0  6 0.1 0  6.08 0.1 0  6.16 0.1 0  6.24 0.1 0  6.32 0.1 0  6.4 0.1 0  6.48 0.1 0  6.56 0.1 0  6.64 0.1 0  6.72 0.1 0  6.8 0.1 0  6.88 0.1 0  6.96 0.1 0  7.04 0.1 0  7.12 0.1 0  7.2 0.1 0  7.28 0.1 0  7.36 0.1 0  7.44 0.1 0  7.52 0.1 0  7.6 0.1 0  7.68 0.1 0  7.76 0.1 0  7.84 0.1 0  7.92 0.1 0  8 0.1 0  0 0.125 0  0.08 0.125 0  0.16 0.125 0  0.24 0.125 0  0.32 0.125 0  0.4 0.125 0  0.48 0.125 0  0.5600000000000001 0.125 0  0.64 0.125 0  0.72 0.125 0  0.8 0.125 0  0.88 0.125 0  0.96 0.125 0  1.04 0.125 0  1.12 0.125 0  1.2 0.125 0  1.28 0.125 0  1.36 0.125 0  1.44 0.125 0  1.52 0.125 0  1.6 0.125 0  1.68 0.125 0  1.76 0.125 0  1.84 0.125 0  1.92 0.125 0  2 0.125 0  2.08 0.125 0  2.16 0.125 0  2.24 0.125 0  2.32 0.125 0  2.4 0.125 0  2.48 0.125 0  2.56 0.125 0  2.64 0.125 0  2.72 0.125 0  2.8 0.125 0  2.88 0.125 0  2.96 0.125 0  3.04 0.125 0  3.12 0.125 0  3.2 0.125 0  3.28 0.125 0  3.36 0.125 0  3.44 0.125 0  3.52 0.125 0  3.6 0.125 0  3.68 0.125 0  3.76 0.125 0  3.84 0.125 0  3.92 0.125 0  4 0.125 0  4.08 0.125 0  4.16 0.125 0  4.24 0.125 0  4.32 0.125 0  4.4 0.125 0  4.48 0.125 0  4.56 0.125 0  4.64 0.125 0  4.72 0.125 0  4.8 0.125 0  4.88 0.125 0  4.96 0.125 0  5.04 0.125 0  5.12 0.125 0  5.2 0.125 0  5.28 0.125 0  5.36 0.125 0  5.44 0.125 0  5.52 0.125 0  5.6 0.125 0  5.68 0.125 0  5.76 0.125 0  5.84 0.125 0  5.92 0.125 0  6 0.125 0  6.08 0.125 0  6.16 0.125 0  6.24 0.125 0  6.32 0.125 0  6.4 0.125 0  6.48 0.125 0  6.56 0.125 0  6.64 0.125 0  6.72 0.125 0  6.8 0.125 0  6.88 0.125 0  6.96 0.125 0  7.04 0.125 0  7.12 0.125 0  7.2 0.125 0  7.28 0.125 0  7.36 0.125 0  7.44 0.125 0  7.52 0.125 0  7.6 0.125 0  7.68 0.125 0  7.76 0.125 0  7.84 0.125 0  7.92 0.125 0  8 0.125 0  0 0.15 0  0.08 0.15 0  0.16 0.15 0  0.24 0.15 0  0.32 0.15 0  0.4 0.15 0  0.48 0.15 0  0.5600000000000001 0.15 0  0.64 0.15 0  0.72 0.15 0  0.8 0.15 0  0.88 0.15 0  0.96 0.15 0  1.04 0.15 0  1.12 0.15 0  1.2 0.15 0  1.28 0.15 0  1.36 0.15 0  1.44 0.15 0  1.52 0.15 0  1.6 0.15 0  1.68 0.15 0  1.76 0.15 0  1.84 0.15 0  1.92 0.15 0  2 0.15 0  2.08 0.15 0  2.16 0.15 0  2.24 0.15 0  2.32 0.15 0  2.4 0.15 0  2.48 0.15 0  2.56 0.15 0  2.64 0.15 0  2.72 0.15 0  2.8 0.15 0  2.88 0.15 0  2.96 0.15 0  3.04 0.15 0  3.12 0.15 0  3.2 0.15 0  3.28 0.15 0  3.36 0.15 0  3.44 0.15 0  3.52 0.15 0  3.6 0.15 0  3.68 0.15 0  3.76 0.15 0  3.84 0.15 0  3.92 0.15 0  4 0.15 0  4.08 0.15 0  4.16 0.15 0  4.24 0.15 0  4.32 0.15 0  4.4 0.15 0  4.48 0.15 0  4.56 0.15 0  4.64 0.15 0  4.72 0.15 0  4.8 0.15 0  4.88 0.15 0  4.96 0.15 0  5.04 0.15 0  5.12 0.15 0  5.2 0.15 0  5.28 0.15 0  5.36 0.15 0  5.44 0.15 0  5.52 0.15 0  5.6 0.15 0  5.68 0.15 0  5.76 0.15 0  5.84 0.15 0  5.92 0.15 0  6 0.15 0  6.08 0.15 0  6.16 0.15 0  6.24 0.15 0  6.32 0.15 0  6.4 0.15 0  6.48 0.15 0  6.56 0.15 0  6.64 0.15 0  6.72 0.15 0  6.8 0.15 0  6.88 0.15 0  6.96 0.15 0  7.04 0.15 0  7.12 0.15 0  7.2 0.15 0  7.28 0.15 0  7.36 0.15 0  7.44 0.15 0  7.52 0.15 0  7.6 0.15 0  7.68 0.15 0  7.76 0.15 0  7.84 0.15 0  7.92 0.15 0  8 0.15 0  0 0.175 0  0.08 0.175 0  0.16 0.175 0  0.24 0.175 0  0.32 0.175 0  0.4 0.175 0  0.48 0.175 0  0.5600000000000001 0.175 0  0.64 0.175 0  0.72 0.175 0  0.8 0.175 0  0.88 0.175 0  0.96 0.175 0  1.04 0.175 0  1.12 0.175 0  1.2 0.175 0  1.28 0.175 0  1.36 0.175 0  1.44 0.175 0  1.52 0.175 0  1.6 0.175 0  1.68 0.175 0  1.76 0.175 0  1.84 0.175 0  1.92 0.175 0  2 0.175 0  2.08 0.175 0  2.16 0.175 0  2.24 0.175 0  2.32 0.175 0  2.4 0.175 0  2.48 0.175 0  2.56 0.175 0  2.64 0.175 0  2.72 0.175 0  2.8 0.175 0  2.88 0.175 0  2.96 0.175 0  3.04 0.175 0  3.12 0.175 0  3.2 0.175 0  3.28 0.175 0  3.36 0.175 0  3.44 0.175 0  3.52 0.175 0  3.6 0.175 0  3.68 0.175 0  3.76 0.175 0  3.84 0.175 0  3.92 0.175 0  4 0.175 0  4.08 0.175 0  4.16 0.175 0  4.24 0.175 0  4.32 0.175 0  4.4 0.175 0  4.48 0.175 0  4.56 0.175 0  4
[...]
<PointData  Scalars="Posterior"> 
<DataArray  type="Float64"  Name="Posterior"  format="ascii">3.0486440265187795e+00  2.9938552728121763e+00  2.8763079171133015e+00  2.7169139535207805e+00  2.5308234296582555e+00  2.3305498974472343e+00  2.1265239284732189e+00  1.9272465994665069e+00  1.7394071007145939e+00  1.5680298470561809e+00  1.4166669665380240e+00  1.2876345985465179e+00  1.1821637840487540e+00  1.1006131980546883e+00  1.0426140901699128e+00  1.0072485586598035e+00  9.9314992796539769e-01  9.9861875222597973e-01  1.0217295522690648e+00  1.0604320561608560e+00  1.1126168812963044e+00  1.1761649042234552e+00  1.2490018313160363e+00  1.3291328154117465e+00  1.4146888331412626e+00  1.5039755630075220e+00  1.5954517155270835e+00  1.6877462463261139e+00  1.7796661121963879e+00  1.8702277590925647e+00  1.9586484096635424e+00  2.0443264583141421e+00  2.1268461654465867e+00  2.2059770119589857e+00  2.2816569887377405e+00  2.3539864048012902e+00  2.4232264091059754e+00  2.4897562336256698e+00  2.5541061520399175e+00  2.6169251520978136e+00  2.6789722437468555e+00  2.7410825422018590e+00  2.8041928084450269e+00  2.8693098994989690e+00  2.9375022163691824e+00  3.0099020742117446e+00  3.0876586733386695e+00  3.1719586771801183e+00  3.2640252651916164e+00  3.3651057261649697e+00  3.4764601997125588e+00  3.5993146695693774e+00  3.7348990413430840e+00  3.8844412307303386e+00  4.0491604705070152e+00  4.2302070682425601e+00  4.4286979253436236e+00  4.6457501812340709e+00  4.8824336426363359e+00  5.1397380684026786e+00  5.4185596758779262e+00  5.7197624016484490e+00  6.0441929351126404e+00  6.3925977848660303e+00  6.7656340562432256e+00  7.1638504360286959e+00  7.5877338251591731e+00  8.0377114911664265e+00  8.5141336074780121e+00  9.0172022245130066e+00  9.5469922307433457e+00  1.0103489407432093e+01  1.0686609667003719e+01  1.1296127155133515e+01  1.1931643087604975e+01  1.2592615342464384e+01  1.3278362096969342e+01  1.3988081014104193e+01  1.4720776951974081e+01  1.5475242188841392e+01  1.6250028187234250e+01  1.7043440347684225e+01  1.7853492298494132e+01  1.8677868629522166e+01  1.9513883018835809e+01  2.0358441188790223e+01  2.1207985647810013e+01  2.2058435386068314e+01  2.2905122971611725e+01  2.3742711354551702e+01  2.4565105250919377e+01  2.5365353314207780e+01  2.6135548300628447e+01  2.6866715260466531e+01  2.7548695119790946e+01  2.8170037696044954e+01  2.8717921291915818e+01  2.9178099825109605e+01  2.9534767949167286e+01  2.9769608484561150e+01  2.9852905510047705e+01  3.0437594016247118e+00  2.9918198229747333e+00  2.8746804710155729e+00  2.7154335308709605e+00  2.5294052824343538e+00  2.3291564286032127e+00  2.1251384022607454e+00  1.9258615733677402e+00  1.7380190449967543e+00  1.5666381048970806e+00  1.4152720012106741e+00  1.2862362880938534e+00  1.1807628360064939e+00  1.0992100511067520e+00  1.0412087807357295e+00  1.0058411431888103e+00  9.9174079882130428e-01  9.9720848421759456e-01  1.0203187121898338e+00  1.0590205931524324e+00  1.1112044088645234e+00  1.1747517151714035e+00  1.2475880366247765e+00  1.3277191851602907e+00  1.4132760638281852e+00  1.5025629557905589e+00  1.5940389533775772e+00  1.6863337611111078e+00  1.7782544837912226e+00  1.8688163049714959e+00  1.9572366269469086e+00  2.0429147775640608e+00  2.1254351096001116e+00  2.2045661553192915e+00  2.2802461284410569e+00  2.3525759125440047e+00  2.4218158562655425e+00  2.4883454749686145e+00  2.5526960276234085e+00  2.6155162335552973e+00  2.6775638861250926e+00  2.7396751051353512e+00  2.8027857119349626e+00  2.8679025172122330e+00  2.9360940880133732e+00  3.0084926313505065e+00  3.0862488588869752e+00  3.1705496282171275e+00  3.2626171495193788e+00  3.3636985427571595e+00  3.4750535636366244e+00  3.5979085443318191e+00  3.7334929290367036e+00  3.8830343380045740e+00  4.0477521557626588e+00  4.2287976940894332e+00  4.4272880486610973e+00  4.6443392819611944e+00  4.8810210509999195e+00  5.1383240515701267e+00  5.4171446167681196e+00  5.7183469639942643e+00  6.0427758196754624e+00  6.3911793237424348e+00  6.7642146239953824e+00  7.1624314336500312e+00  7.5863150994972059e+00  8.0362928114506396e+00  8.5127136232922460e+00  9.0157815546549465e+00  9.5455716255292877e+00  1.0102068885334216e+01  1.0685188101766396e+01  1.1294703994455560e+01  1.1930218754039085e+01  1.2591189611357184e+01  1.3276935414357961e+01  1.3986653409372838e+01  1.4719348501837100e+01  1.5473812679780846e+01  1.6248597694301107e+01  1.7042008623000616e+01  1.7852059462576772e+01  1.8676434974797278e+01  1.9512448615731234e+01  2.0357005865400268e+01  2.1206549331515436e+01  2.2056998115330117e+01  2.2903684484920799e+01  2.3741271389624004e+01  2.4563663511784011e+01  2.5363909450898195e+01  2.6134101569089196e+01  2.6865264055319283e+01  2.7547235888403712e+01  2.8168562528388556e+01  2.8716412784742960e+01  2.9176520850668549e+01  2.9533043398103196e+01  2.9767643804975059e+01  2.9853218023001954e+01  3.0364604852715757e+00  2.9869866625036039e+00  2.8709108694095988e+00  2.7121115622753180e+00  2.5262814453848392e+00  2.3261174636424400e+00  2.1221316910006465e+00  1.9228644922992899e+00  1.7350202000954482e+00  1.5636338502038853e+00  1.4122624971240825e+00  1.2832209128347856e+00  1.1777424490201582e+00  1.0961853249826632e+00  1.0381800072419409e+00  1.0028076509568180e+00  9.8870339300916044e-01  9.9416810119145538e-01  1.0172763536067677e+00  1.0559765798067318e+00  1.1081574690427729e+00  1.1717023496366323e+00  1.2445366659844765e+00  1.3246672714579759e+00  1.4102251942625514e+00  1.4995122865901962e+00  1.5909876579507554e+00  1.6832821004438827e+00  1.7752033932666649e+00  1.8657654001394874e+00  1.9541851107243779e+00  2.0398626296541025e+00  2.1223838746394748e+00  2.2015148011085586e+00  2.2771949873222574e+00  2.3495252902506856e+00  2.4187646415552990e+00  2.4852936646991175e+00  2.5496446839172187e+00  2.6124673837238319e+00  2.6745163117867392e+00  2.7366294216233769e+00  2.7997416974539355e+00  2.8648584087506102e+00  2.9330491105323375e+00  3.0054452192969734e+00  3.0831997882341859e+00  3.1675019520864538e+00  3.2595717646933586e+00  3.3606560595583126e+00  3.4720133035996774e+00  3.5948704040719974e+00  3.7304554053704599e+00  3.8799957186141505e+00  4.0447105206194180e+00  4.2257533506716420e+00  4.4242422716368814e+00  4.6412916893338156e+00  4.8779706269066558e+00  5.1352701268241603e+00  5.4140880989021767e+00  5.7152895247872699e+00  6.0397154251173824e+00  6.3881160341675987e+00  6.7611491457926896e+00  7.1593664635140293e+00  7.5832517280000822e+00  8.0332311110650423e+00  8.5096503659044700e+00  9.0127167398008972e+00  9.5425065515257117e+00  1.0099004422133813e+01  1.0682121995035903e+01  1.1291634268719264e+01  1.1927145618171171e+01  1.2588113114626701e+01  1.3273856569022300e+01  1.3983572112918097e+01  1.4716265111389728e+01  1.5470726828348983e+01  1.6245509416624934e+01  1.7038917665691400e+01  1.7848966276154613e+01  1.8673340121796997e+01  1.9509352407585677e+01  2.0353908154344730e+01  2.1203450143843213e+01  2.2053897568516302e+01  2.2900582378203477e+01  2.3738167301580379e+01  2.4560556908499056e+01  2.5360799629497190e+01  2.6130986919988722e+01  2.6862140625551984e+01  2.7544094257836274e+01  2.8165381098181165e+01  2.8713143695017504e+01  2.9173062993476758e+01  2.9529198049099975e+01  2.9763112917713997e+01  2.9849048478344695e+01  3.0283297680203987e+00  2.9807679608551751e+00  2.8660826350470003e+00  2.7079569469520450e+00  2.5224370973182317e+00  2.3224087800498836e+00  2.1184768841306791e+00  1.9192268215738224e+00  1.7313824705514094e+00  1.5599893835320344e+00  1.4086110793621032e+00  1.2795612132920624e+00  1.1740752171114650e+00  1.0925112098288423e+00  1.0345003454957649e+00  9.9912189652738448e-01  9.8501198872539675e-01  9.9047227742395449e-01  1.0135773610869450e+00  1.0522748414786065e+00  1.1044519781450930e+00  1.1679933258530113e+00  1.2408246642404990e+00  1.3209538970699057e+00  1.4065124736015449e+00  1.4957993795198945e+00  1.5872740334258140e+00  1.6795678468243551e+00  1.7714893411415318e+00  1.8620514518663853e+00  1.9504710341397349e+00  2.0361483327493239e+00  2.1186698661275010e+00  2.1978006421721901e+00  2.2734810370954079e+00  2.3458120342368431e+00  2.4150504084348690e+00  2.4815790752611022e+00  2.5459306652391511e+00  2.6087554860480004e+00  2.6708057470807276e+00  2.7329209768747482e+00  2.7960353191156564e+00  2.8611526955026285e+00  2.9293435625850748e+00  3.0017379614508322e+00  3.0794908375587191e+00  3.1637935051925794e+00  3.2558657557007997e+00  3.3569534713867277e+00  3.4683129203533269e+00  3.5911722592441571e+00  3.7267584934937297e+00  3.8762982948236768e+00  4.0410097121656285e+00  4.2220486063323222e+00  4.4205355414133329e+00  4.6375828265290018e+00  4.8742580359435088e+00  5.1315526458559155e+00  5.4103670700559583e+00  5.7115671010476383e+00  6.0359893848582225e+00  6.3843865051059474e+00  6.7574166202098489e+00  7.1556338347530897e+00  7.5795215428885001e+00  8.0295035779314681e+00  8.5059216917995357e+00  9.0089858114545969e+00  9.5387751357605772e+00  1.0095273796936503e+01  1.0678389266377469e+01  1.1287896195730564e+01  1.1923402225702702e+01  1.2584364962050223e+01  1.3270105783642808e+01  1.3979817951416113e+01  1.4712507132067348e+01  1.5466964630858396e+01  1.6241743449881582e+01  1.7035147869081396e+01  1.7845193411616485e+01  1.8669564705731332e+01  1.9505575068444980e+01  2.0350129022197159e+01  2.1199669309648776e+01  2.2050115067773334e+01  2.2896798029059152e+01  2.3734380612998276e+01  2.4556767154328131e+01  2.5357005760817493e+01  2.6127186586270152e+01  2.6858327930914328e+01  2.7540254929638060e+01  2.8161482170480134e+01  2.8709112253773455e+01  2.9168746886920985e+01  2.9524308693794392e+01  2.9757249157324456e+01  2.9842837835495398e+01  3.0202065650316570e+00  2.9740863879577333e+00  2.8608646695616002e+00  2.7035436034157243e+00  2.5184107176605721e+00  2.3185550022095427e+00  2.1146932602007311e+00  1.9154661602362353e+00  1.7276230435790083e+00  1.5562229102677563e+00  1.4048361683111850e+00  1.2757765832505967e+00  1.1702814299109292e+00  1.0887083672067348e+00  1.0306905167375291e+00  9.9530542805191402e-01  9.8118884651918847e-01  9.8664346116419210e-01  1.0097443821252625e+00  1.0484383670710571e+00  1.1006119419865570e+00  1.1641495320747381e+00  1.2369773358641467e+00  1.3171042913128872e+00  1.4026626285539407e+00  1.4919486863693407e+00  1.5834224951220861e+00  1.6757155496744289e+00  1.7676371375443125e+00  1.8581996463416317e+00  1.9466193850387512e+00  2.0322972082780488e+00  2.1148189021682420e+00  2.1939495688694279e+00  2.2696302339917658e+00  2.3419614012375973e+00  2.4111986273987007e+00  2.4777275260193505e+00  2.5420799786933976e+00  2.6049061820408710e+00  2.6669573129866500e+00  2.7290747212744400e+00  2.7921908241748348e+00  2.8573093583037839e+00  2.9255014027541542e+00  2.9978953600999567e+00  3.0756474377354408e+00  3.1599503315829587e+00  3.2520243240630826e+00  3.3531148950166774e+00  3.4644754588875877e+00  3.5873359273991419e+00  3.7229232178176552e+00  3.8724632640247343e+00  4.0371718150085627e+00  4.2182069337455772e+00  4.4166919425776001e+00  4.6337369795170922e+00  4.8704078035094263e+00  5.1276962574499088e+00  5.4065066639568009e+00  5.7077049968754885e+00  6.0321236053383025e+00  6.3805167666049414e+00  6.7535435613493782e+00  7.1517601430083886e+00  7.5756508386030497e+00  8.0256361780574963e+00  8.5020533518097103e+00  9.0051147763015216e+00  9.5349031040921766e+00  1.0091402783073036e+01  1.0674516252737728e+01  1.1284017049438265e+01  1.1919516442426907e+01  1.2580473499532101e+01  1.3266211852481153e+01  1.3975920574124995e+01  1.4708604634199325e+01  1.5463056280212623e+01  1.6237829994297211e+01  1.7031229616587449e+01  1.7841271169530764e+01  1.8665639143586752e+01  1.9501647172041494e+01  2.0346199322017984e+01  2.1195737932446491e+01  2.2046182010918660e+01  2.2892862966104087e+01  2.3730442958883341e+01  2.4552826058934180e+01  2.5353059976210055e+01  2.6123233243413690e+01  2.6854359789285439e+01  2.7536254396581512e+01  2.8157408462268151e+01  2.8704875486553671e+01  2.9164162429313567e+01  2.9519042387025820e+01  2.9750897513835593e+01  2.9835921338789532e+01  3.0126278647617752e+00  2.9675862859745550e+00  2.8557394094082156e+00  2.6992597245869021e+00  2.5145495576824928e+00  2.3148854924667290e+00  2.1111030577922563e+00  1.9119025338790152e+00  1.7240620897325485e+00  1.5526550172148461e+00  1.4012590925225510e+00  1.2721887983521469e+00  1.1666839510670428e+00  1.0851010747261327e+00  1.0270755486663177e+00  9.9168355024552568e-01  9.7755990163084050e-01  9.8300812756060196e-01  1.0061040038494582e+00  1.0447940507234037e+00  1.0969643399113593e+00  1.1604985998396842e+00  1.2333226455082453e+00  1.3134466897065025e+00  1.3990041031940521e+00  1.4882892182223770e+00  1.5797619681600423e+00  1.6720540999805067e+00  1.7639756561649023e+00  1.8545390256580845e+00  1.9429592352715801e+00  2.0286377877722295e+00  2.1111598446351501e+00  2.1902906781500846e+00  2.2659715380584338e+00  2.3383026107955338e+00  2.4075384970643299e+00  2.4740678517051720e+00  2.5384212384762641e+00  2.6012483090996454e+00  2.6632999159483113e+00  2.7254193146231671e+00  2.7885372659913941e+00  2.8536570822112317e+00  2.9218505894650733e+00  2.9942448263089467e+00  3.0719969491224361e+00  3.1563004875949083e+00  3.2483758614459397e+00  3.3494683792958639e+00  3.4608289675512154e+00  3.5836894459169741e+00  3.7192774747184707e+00  3.8688178125323311e+00  4.0335237254660399e+00  4.2145559379818422e+00  4.4130398804853463e+00  4.6300825684827522e+00  4.8667485570292222e+00  5.1240300353593078e+00  5.4028356431411027e+00  5.7040318010234010e+00  6.0284473219115426e+00  6.3768363971148858e+00  6.7498598555607856e+00  7.1480756457519625e+00  7.5719693979465426e+00  8.0219584573583909e+00  8.4983755808593031e+00  9.0014343276208315e+00  9.5312210794839487e+00  1.0087721466480652e+01  1.0670833223749366e+01  1.1280327908460674e+01  1.1915820428619746e+01  1.2576771683758167e+01  1.3262507679887975e+01  1.3972213454727715e+01  1.4704892064049847e+01  1.5459336812801162e+01  1.6234104105684477e+01  1.7027497923885161e+01  1.7837534576516934e+01  1.8661898779795894e+01  1.9497904337991450e+01  2.0342454822728577e+01  2.1191991979959059e+01  2.2042434613586430e+01  2.2889113633682051e+01  2.3726690967355577e+01  2.4549070449394044e+01  2.5349299429352541e+01  2.6119464712016740e+01  2.6850575479080248e+01  2.7532435276590700e+01  2.8153510304925653e+01  2.8700801173036549e+01  2.9159715850758371e+01  2.9513886264497380e+01  2.9744684233155862e+01  2.9829128642212908e+01  3.0059718557447539e+00  2.9617296869220269e+00  2.8510759544685556e+00  2.6953930953305161e+00  2.5110994386110050e+00  2.3116274597379913e+00  2.1079252191977389e+00  1.9087522041590717e+00  1.7209153934460701e+00  1.5495019444880356e+00  1.3980969671068522e+00  1.2690160917853035e+00  1.1635014826210437e+00  1.0819092825012930e+00  1.0238762100558674e+00  9.8847741222708407e-01  9.7434678407090303e-01  9.7978848999776602e-01  1.0028792089567418e+00  1.0415653361660588e+00  1.0937324993006499e+00  1.1572636459846990e+00  1.2300841656850707e+00  1.3102052142536849e+00  1.3957614577705115e+00  1.4850458881011619e+00  1.5765178144282785e+00  1.6688090045565147e+00  1.7607305437384539e+00  1.8512948117871701e+00  1.9397155748652359e+00  2.0253946615360547e+00  2.1079170970511640e+00  2.1870483362219488e+00  2.2627293309408891e+00  2.3350603157468939e+00  2.4042952073205797e+00  2.4708250250233448e+00  2.5351792295552684e+00  2.5980069753796613e+00  2.6600590986652861e+00  2.7221799803819557e+00  2.7852996586652523e+00  2.8504210476545708e+00  2.9186159757602148e+00  2.9910105934314473e+00  3.0687631351594611e+00  3.1530674776703300e+00  3.2451442248717228e+00  3.3462378928918710e+00  3.4575978312120803e+00  3.5804575395382088e+00  3.7160459005882878e+00  3.8655865425981624e+00  4.0302899176139491e+00  4.2113197608130086e+00  4.4098033712473317e+00  4.6268443394109617e+00  4.8635053760384999e+00  5.1207795533192346e+00  5.3995795792069181e+00  5.7007727953899803e+00  6.0251855868950557e+00  6.3735710865879369e+00  6.7465911579289326e+00  7.1448065467140474e+00  7.5687033748872494e+00  8.0186962260818184e+00  8.4951140909452967e+00  8.9981710527368790e+00  9.5279563531957017e+00  1.0084457113476699e+01  1.0667567209427958e+01  1.1277056140390286e+01  1.1912542112745115e+01  1.2573488553777462e+01  1.3259222476356680e+01  1.3968925790706624e+01  1.4701599432108171e+01  1.5456037009727005e+01  1.6230796963284281e+01  1.7024184134870083e+01  1.7834215210413888e+01  1.8658575473198560e+01  1.9494578780419513e+01  2.0339127897235990e+01  2.1188663975874537e+01  2.2039105577727330e+01  2.2885782902335706e+01  2.3723357682412328e+01  2.4545733598580920e+01  2.5345957723468512e+01  2.6116115286003261e+01  2.6847210888807396e+01  2.7529037127034453e+01  2.8150035654040042e+01  2.8697155927361980e+01  2.9155712986186881e+01  2.9509219379294358e+01  2.9739082894461017e+01  2.9823018299628533e+01  3.0005119317497062e+00  2.9568477268448206e+00  2.8471566486148063e+00  2.6921620080076707e+00  2.5082405177436868e+00  2.3089430549295997e+00  2.1053143916155932e+00  1.9061669352990052e+00  1.7183339540339304e+00  1.5469149307155377e+00  1.3955019012196672e+00  1.2664117187360304e+00  1.1608880481718060e+00  1.0792874578870411e+00  1.0212476641303354e+00  9.8584256941255433e-01  9.7170566477826981e-01  9.7714140194619148e-01  1.0002274007975132e+00  1.0389099891965401e+00  1.0910743500291602e+00  1.1546026518476040e+00  1.2274201603277675e+00  1.3075386447727411e+00  1.3930939516337446e+00  1.4823780717560808e+00  1.5738494872672391e+00  1.6661398447713509e+00  1.7580614140715483e+00  1.8486265074479249e+00  1.9370478140838223e+00  2.0227271785722714e+00  2.1052497873942855e+00  2.1843814852182355e+00  2.2600627438430685e+00  2.3323937986797745e+00  2.4016280515393191e+00  2.4681582275715606e+00  2.5325131753440644e+00  2.5953416097487825e+00  2.6573945175916478e+00  2.7195165797516694e+00  2.7826374750079452e+00  2.8477604580378468e+00  2.9159567247380451e+00  2.9883515180242775e+00  3.0661044614893456e+00  3.1504094939103737e+00  3.2424875929166070e+00  3.3435820672033678e+00  3.4549409846723407e+00  3.5777994768976420e+00  3.7133875527735150e+00  3.8629282809822065e+00  4.0276294994430941e+00  4.2086571637879260e+00  4.4071405949285989e+00  4.6241805937758720e+00  4.8608373778894567e+00  5.1181043760159604e+00  5.3968985295649254e+00  5.6980882732198275e+00  6.0224981919302429e+00  6.3708806134498133e+00  6.7438976248713196e+00  7.1421130555947236e+00  7.5660132288623956e+00  8.0160099920972314e+00  8.4924293064041976e+00  8.9954854035424816e+00  9.5252701980468863e+00  1.0081771560161435e+01  1.0664880326176977e+01  1.1274364127734728e+01  1.1909844062200701e+01  1.2570786836635921e+01  1.3256519562652247e+01  1.3966221001146138e+01  1.4698890291756939e+01  1.5453321009731237e+01  1.6228073388286365e+01  1.7021453444989156e+01  1.7831478712641506e+01  1.8655835179553986e+01  1.9491836706385911e+01  2.0336384997317566e+01  2.1185920509946229e+01  2.2036361551705006e+01  2.2883037574458530e+01  2.3720610068785554e+01  2.4542982686002766e+01  2.5343202377530243e+01  2.6113353154704530e+01  2.6844435758042351e+01  2.7526233303014443e+01  2.8147166095267764e+01  2.8694139303907811e+01  2.9152389465666097e+01  2.9505337505585036e+01  2.9734449197477879e+01  2.9817981161409460e+01  2.9964423938883229e+00  2.9531722498151396e+00  2.8441901623185686e+00  2.6897289053727320e+00  2.5061037995418118e+00  2.3069474129012946e+00  2.1033787925496128e+00  1.9042525713807308e+00  1.7164229929968755e+00  1.5449994014800694e+00  1.3935797604319973e+00  1.2644822689921966e+00  1.1589511890130524e+00  1.0773436963468015e+00  1.0192984092729276e+00  9.8388807637536502e-01  9.6974591999275361e-01  9.7517677787024581e-01  9.9825899605178137e-01  1.0369386961393232e+00  1.0891008435848946e+00  1.1526269