<?xml version="1.0"?>
<VTKFile type="UnstructuredGrid"  version="0.1"  >
<UnstructuredGrid>
<Piece  NumberOfPoints="12221" NumberOfCells="40933">
<Points>
<DataArray  type="Float64"  NumberOfComponents="3"  format="ascii">1.57027804851532 20.46841239929199 1.820218205451965  1.612528204917908 20.46841239929199 1.816622138023376  1.57027804851532 20.46841239929199 1.570218086242676  1.448354363441467 20.46841239929199 1.788471579551697  1.486993193626404 20.46841239929199 1.805937528610229  1.528027892112732 20.46841239929199 1.816622138023376  1.357395768165588 20.46841239929199 1.701294898986816  1.382610082626343 20.46841239929199 1.735386729240417  1.413223147392273 20.46841239929199 1.764727115631104  1.320503354072571 20.46841239929199 1.580828428268433  1.325889229774475 20.46841239929199 1.622887969017029  1.338305830955505 20.46841239929199 1.663432240486145  1.347046613693237 20.46841239929199 1.457667231559753  1.331236481666565 20.46841239929199 1.497012495994568  1.322302937507629 20.46841239929199 1.538463592529297  1.430284380912781 20.46841239929199 1.363090753555298  1.397293448448181 20.46841239929199 1.389729142189026  1.369278788566589 20.46841239929199 1.421559810638428  1.549076676368713 20.46841239929199 1.321118831634521  1.507283568382263 20.46841239929199 1.328284859657288  1.467302799224854 20.46841239929199 1.342411041259766  1.673253417015076 20.46841239929199 1.342411041259766  1.633272647857666 20.46841239929199 1.328284859657288  1.591479539871216 20.46841239929199 1.321118831634521  1.77127742767334 20.46841239929199 1.421559810638428  1.743262767791748 20.46841239929199 1.389729142189026  1.710271835327148 20.46841239929199 1.363090753555298  1.81825315952301 20.46841239929199 1.538463592529297  1.809319734573364 20.46841239929199 1.497012495994568  1.793509602546692 20.46841239929199 1.457667231559753  1.802250266075134 20.46841239929199 1.663432240486145  1.814666867256165 20.46841239929199 1.622887969017029  1.820052862167358 20.46841239929199 1.580828428268433  1.727333068847656 20.46841239929199 1.764727115631104  1.757946133613586 20.46841239929199 1.735386729240417  1.783160328865051 20.46841239929199 1.701294898986816  1.653563022613525 20.46841239929199 1.805937528610229  1.692201852798462 20.46841239929199 1.788471579551697  1.53714394569397 18.46841430664062 1.817397952079773  1.528027892112732 18.46841430664062 1.816622138023376  1.500478386878967 18.46841430664062 1.809448838233948  1.461055040359497 18.46841430664062 1.794212698936462  1.486993193626404 18.46841430664062 1.805937528610229  1.420613408088684 18.46841430664062 1.769721984863281  1.440796852111816 18.46841430664062 1.783363699913025  1.448354363441467 18.46841430664062 1.788471579551697  1.413223147392273 18.46841430664062 1.764727115631104  1.401200532913208 18.46841430664062 1.753204345703125  1.382610082626343 18.46841430664062 1.735386729240417  1.365389347076416 18.46841430664062 1.712102890014648  1.357395768165588 18.46841430664062 1.701294898986816  1.350435137748718 18.46841430664062 1.68748950958252  1.338305830955505 18.46841430664062 1.663432240486145  1.323116183280945 18.46841430664062 1.601232171058655  1.325889229774475 18.46841430664062 1.622887969017029  1.328550815582275 18.46841430664062 1.631578803062439  1.320952773094177 18.46841430664062 1.570246815681458  1.320503354072571 18.46841430664062 1.580828428268433  1.328688621520996 18.46841430664062 1.508834481239319  1.322302937507629 18.46841430664062 1.538463592529297  1.350048422813416 18.46841430664062 1.452791810035706  1.347046613693237 18.46841430664062 1.457667231559753  1.338079810142517 18.46841430664062 1.479981780052185  1.331236481666565 18.46841430664062 1.497012495994568  1.382596373558044 18.46841430664062 1.406428217887878  1.369278788566589 18.46841430664062 1.421559810638428  1.365220189094543 18.46841430664062 1.428151488304138  1.440813899040222 18.46841430664062 1.357208609580994  1.430284380912781 18.46841430664062 1.363090753555298  1.420743465423584 18.46841430664062 1.370794534683228  1.397293448448181 18.46841430664062 1.389729142189026  1.500448346138 18.46841430664062 1.330699920654297  1.481026172637939 18.46841430664062 1.337562203407288  1.467302799224854 18.46841430664062 1.342411041259766  1.460976719856262 18.46841430664062 1.345944881439209  1.507283568382263 18.46841430664062 1.328284859657288  1.537216067314148 18.46841430664062 1.323152422904968  1.549076676368713 18.46841430664062 1.321118831634521  1.57027804851532 18.46841430664062 1.321118831634521  1.591479539871216 18.46841430664062 1.321118831634521  1.603340148925781 18.46841430664062 1.323152422904968  1.633272647857666 18.46841430664062 1.328284859657288  1.640107870101929 18.46841430664062 1.330699920654297  1.673253417015076 18.46841430664062 1.342411041259766  1.699742317199707 18.46841430664062 1.357208609580994  1.679579496383667 18.46841430664062 1.345944881439209  1.719812750816345 18.46841430664062 1.370794534683228  1.710271835327148 18.46841430664062 1.363090753555298  1.775336027145386 18.46841430664062 1.428151488304138  1.77127742767334 18.46841430664062 1.421559810638428  1.757959842681885 18.46841430664062 1.406428217887878  1.743262767791748 18.46841430664062 1.389729142189026  1.802476406097412 18.46841430664062 1.479981780052185  1.793509602546692 18.46841430664062 1.457667231559753  1.790507674217224 18.46841430664062 1.452791810035706  1.811867594718933 18.46841430664062 1.508834481239319  1.809319734573364 18.46841430664062 1.497012495994568  1.819603323936462 18.46841430664062 1.570246815681458  1.81825315952301 18.46841430664062 1.538463592529297  1.817440032958984 18.46841430664062 1.601232171058655  1.820052862167358 18.46841430664062 1.580828428268433  1.812005281448364 18.46841430664062 1.631578803062439  1.814666867256165 18.46841430664062 1.622887969017029  1.790120959281921 18.46841430664062 1.68748950958252  1.802250266075134 18.46841430664062 1.663432240486145  1.775166869163513 18.46841430664062 1.712102890014648  1.783160328865051 18.46841430664062 1.701294898986816  1.739355564117432 18.46841430664062 1.753204345703125  1.757946133613586 18.46841430664062 1.735386729240417  1.699759244918823 18.46841430664062 1.783363699913025  1.719942808151245 18.46841430664062 1.769721984863281  1.727333068847656 18.46841430664062 1.764727115631104  1.692201852798462 18.46841430664062 1.788471579551697  1.679501175880432 18.46841430664062 1.794212698936462  1.640077829360962 18.46841430664062 1.809448838233948  1.653563022613525 18.46841430664062 1.805937528610229  1.659604668617249 18.46841430664062 1.803206562995911  1.57027804851532 18.46841430664062 1.820218205451965  1.60341215133667 18.46841430664062 1.817397952079773  1.612528204917908 18.46841430664062 1.816622138023376  1.55709445476532 18.12985801696777 1.308515310287476  1.588527321815491 18.0935115814209 1.805187106132507  1.706442713737488 18.11476135253906 1.358005166053772  1.626834392547607 18.12371635437012 1.318304777145386  1.666206121444702 18.11959457397461 1.333446860313416  1.590165376663208 18.12711715698242 1.310633182525635  1.496960282325745 18.29882431030273 1.327229619026184  1.336784362792969 18.13809967041016 1.4411940574646  1.48570191860199 18.10209465026855 1.797695517539978  1.446330189704895 18.10621643066406 1.782553553581238  1.430922269821167 17.82234001159668 1.293932199478149  1.411040544509888 17.82428359985352 1.302773237228394  1.432196140289307 17.97786712646484 1.320564150810242  1.467807531356812 18.13572120666504 1.325302243232727  1.487288475036621 18.13464164733887 1.318684697151184  1.471571683883667 17.97479820251465 1.305117011070251  1.481049418449402 17.75258445739746 1.77109682559967  1.513802170753479 17.74724960327148 1.77295982837677  1.555441737174988 18.09595108032227 1.807484984397888  1.279359936714172 17.19436264038086 1.178025245666504  1.259995102882385 17.19847869873047 1.187267899513245  1.349098563194275 17.5124454498291 1.253122687339783  1.317083120346069 17.07337951660156 1.646680116653442  1.348618984222412 17.06296157836914 1.647634744644165  1.445030331611633 17.40302467346191 1.718653678894043  1.095346570014954 16.076904296875 1.025248050689697  1.080063581466675 16.08831214904785 1.004837989807129  1.166699886322021 16.23922729492188 1.030821084976196  1.063509225845337 16.10009002685547 0.9873405694961548  1.046148419380188 16.11196708679199 0.9727286696434021  1.133471488952637 16.26356887817383 0.9985007047653198  0.7798669934272766 16.41922950744629 1.192916750907898  0.7776455283164978 16.4145336151123 1.223682641983032  0.8541044592857361 16.5590763092041 1.255992889404297  1.067362308502197 15.91829776763916 1.155291438102722  1.06624174118042 15.91959571838379 1.139773726463318  1.136497139930725 16.0357666015625 1.162603855133057  1.069931030273438 16.00473022460938 1.037781834602356  1.029613852500916 15.94609069824219 1.027296662330627  1.014345169067383 15.95614624023438 1.004883766174316  0.9497930407524109 15.79574489593506 1.046445369720459  0.9419865608215332 15.79904365539551 1.033876061439514  0.9924629926681519 15.86689567565918 1.040628552436829  0.923431932926178 15.90647506713867 0.9612210988998413  0.9797548651695251 15.97832870483398 0.9688920974731445  0.9975607991218567 15.96699237823486 0.9853931665420532  0.9041614532470703 15.91782474517822 0.9488247632980347  0.9613855481147766 15.98988437652588 0.9553254246711731  0.8478617072105408 15.95143795013428 0.9273697733879089  0.8304176926612854 15.96197128295898 0.9245747327804565  0.8893077969551086 16.03424072265625 0.9265511035919189  0.8424748182296753 16.06238746643066 0.924455463886261  0.8571841716766357 16.0536003112793 0.9238216876983643  0.798323392868042 15.98148441314697 0.9238337874412537  0.9527122974395752 15.77248382568359 1.287731885910034  0.9346247315406799 15.73639583587646 1.288417458534241  0.939687192440033 15.72641754150391 1.262828826904297  0.9593719840049744 15.76358985900879 1.2621
[...]
<PointData  Scalars="Prior"> 
<DataArray  type="Float64"  Name="Prior"  format="ascii">1.3293275185327738e+02  1.3292198953557559e+02  1.3307682166217106e+02  1.3291404067205346e+02  1.3291256687669318e+02  1.3291104103937275e+02  1.3291515171053757e+02  1.3291483234556048e+02  1.3290849262776359e+02  1.3290250127789292e+02  1.3289905830293736e+02  1.3292246671637525e+02  1.3291558586218059e+02  1.3291023445074907e+02  1.3291106234585681e+02  1.3291219452507133e+02  1.3291170594467573e+02  1.3290690193825341e+02  1.3289358631462824e+02  1.3289421313438865e+02  1.3290745199666179e+02  1.3291108962824561e+02  1.3290291195064424e+02  1.3289647434426010e+02  1.3291524872192321e+02  1.3291387736196407e+02  1.3290814035543613e+02  1.3291403172350417e+02  1.3290794715989787e+02  1.3290721578189832e+02  1.3292026049327990e+02  1.3291289368893220e+02  1.3291078955967376e+02  1.3292639929429859e+02  1.3292544957467021e+02  1.3291944681960783e+02  1.3291424215357836e+02  1.3292016135404080e+02  9.1014845144982701e+01  9.1011149765029586e+01  9.1000865365862268e+01  9.0978092937235076e+01  9.0993946676661565e+01  9.0945759095517971e+01  9.0962107130883652e+01  9.0965985521641358e+01  9.0940865286775136e+01  9.0924444169795819e+01  9.0921031240603412e+01  9.0904979423196735e+01  9.0901278331154629e+01  9.0897076980957706e+01  9.0888131301811299e+01  9.0864083228347226e+01  9.0873243632469055e+01  9.0876199250307280e+01  9.0875058350759787e+01  9.0871087900834567e+01  9.0888442775099165e+01  9.0884416813909567e+01  9.0893157393130224e+01  9.0892201704298500e+01  9.0890566906519382e+01  9.0888822243657032e+01  9.0900384841056365e+01  9.0897972527259839e+01  9.0896821145006115e+01  9.0913099279595230e+01  9.0910504643307732e+01  9.0910175296469589e+01  9.0904682906676854e+01  9.0914889388650352e+01  9.0914818594866787e+01  9.0914659161444305e+01  9.0914186012743784e+01  9.0914989533163961e+01  9.0914163818136672e+01  9.0912816496494415e+01  9.0910524466502082e+01  9.0915011539015012e+01  9.0917434589653951e+01  9.0923680419218115e+01  9.0924904968477563e+01  9.0931970063623424e+01  9.0937791712151792e+01  9.0932935082601375e+01  9.0936137932673660e+01  9.0936858857358317e+01  9.0939224107725906e+01  9.0940527869255476e+01  9.0932261422020062e+01  9.0931127174165809e+01  9.0946818473593623e+01  9.0941705311705931e+01  9.0941720056008919e+01  9.0968531423718218e+01  9.0960431780739611e+01  9.1011771013029247e+01  9.0988288971619994e+01  9.1027945000177994e+01  9.1017913774720881e+01  9.1042939792216188e+01  9.1040425122513284e+01  9.1060659567996723e+01  9.1053466394677372e+01  9.1064512828248681e+01  9.1063537408951930e+01  9.1062974673954670e+01  9.1065284115744532e+01  9.1053584600843919e+01  9.1058931289668038e+01  9.1060454593867661e+01  9.1051943618110940e+01  9.1047366730329372e+01  9.1047371974128481e+01  9.1048746702260772e+01  9.1048380347936430e+01  9.1036063055064275e+01  9.1043524217863535e+01  9.1045610222555013e+01  8.4404874233162573e+01  8.4496089961397118e+01  8.4478661551393628e+01  8.4431154687996994e+01  8.4463192357407749e+01  8.4412815907863930e+01  8.7119857112789063e+01  8.4333716933903119e+01  8.4423676551785476e+01  8.4400901249884740e+01  7.9366587450069247e+01  7.9351187050748024e+01  8.1428571030234721e+01  8.4374300449157801e+01  8.4378474029864222e+01  8.1453526408788321e+01  7.9491985827315233e+01  7.9536829223317852e+01  8.4447206452680504e+01  7.2723317965766839e+01  7.2701729958218920e+01  7.5700015080721954e+01  7.2855697335617123e+01  7.2858265746625349e+01  7.5915925880546183e+01  6.7346401086117410e+01  6.7351039110140050e+01  6.7783943746171076e+01  6.7350677464482786e+01  6.7354016342604581e+01  6.7804000873662204e+01  6.7623981073819294e+01  6.7603387981040029e+01  6.8336616449038360e+01  6.6821184378488212e+01  6.6835091797065175e+01  6.7327698441694409e+01  6.7101976263618894e+01  6.6942570240088230e+01  6.6969295518853826e+01  6.6617750591777664e+01  6.6632709878067928e+01  6.6790615769947209e+01  6.6841634105035624e+01  6.7003571564320481e+01  6.7001072545656655e+01  6.6854574533286865e+01  6.7015612422591445e+01  6.6884827622461444e+01  6.6882614568019989e+01  6.7035183719561104e+01  6.7033952387059784e+01  6.7040571285747177e+01  6.6879092746545851e+01  6.6222865072383385e+01  6.6110005072124750e+01  6.6160228768951072e+01  6.6260270923407049e+01  6.6205197062914706e+01  6.6420069045628097e+01  6.6338774561056880e+01  6.6384134666355337e+01  6.5626203283055517e+01  6.5583120308094365e+01  6.5617328124039901e+01  6.5548090079558094e+01  6.5983098560550417e+01  6.6028830310174996e+01  6.6138828993522111e+01  6.5437817348692050e+01  6.5412104532927899e+01  6.5505922820996474e+01  6.6097388917006043e+01  6.6077644911319368e+01  6.6138384276747800e+01  6.5836276096294540e+01  6.5786077000875267e+01  6.5886455509917099e+01  6.5970897249971685e+01  6.5924363471375699e+01  6.5913015195025622e+01  6.5890994345668034e+01  6.5960289972470761e+01  6.5966748844143694e+01  6.5742532309383876e+01  6.5832093714290593e+01  6.5827727239455115e+01  6.5113761866764762e+01  6.5145330551115251e+01  6.5155925690527496e+01  6.5564681729060396e+01  6.5667071268052112e+01  6.5672434620242271e+01  6.4899442831893808e+01  6.4901989527107631e+01  6.4951482438698292e+01  6.5515728650073470e+01  6.5452034979927390e+01  6.5465283066118474e+01  6.4929130207787210e+01  6.4927143302997223e+01  6.4959234879052062e+01  6.4923419270009163e+01  6.4971688561248271e+01  6.4985863600741013e+01  6.4954535988278423e+01  6.4966334437154600e+01  6.5001177293279468e+01  6.4972157221065302e+01  6.4949230915522719e+01  6.4945084152406565e+01  6.4941272761814929e+01  6.5062743222905937e+01  6.5033278088382559e+01  6.5028916269445190e+01  6.5038013250405683e+01  6.5126356247272227e+01  6.5067033682120226e+01  6.5090687615417352e+01  6.5059668342690912e+01  6.5042907012709264e+01  6.5230248942024900e+01  6.5268995373906279e+01  6.5236769509819865e+01  6.5209461342899104e+01  6.5199973994413497e+01  6.5196456004173726e+01  6.5159405133829935e+01  6.5161642227536035e+01  6.5125346439683469e+01  6.5113188936965187e+01  6.5087428371638978e+01  6.5005957362227136e+01  6.4994963053322920e+01  6.5017250930447034e+01  6.4986413278971554e+01  6.4975185867973664e+01  6.5490965941140487e+01  6.5441809107579488e+01  6.5472283190987042e+01  6.5431986232762782e+01  6.5452584638149773e+01  6.5406645497031590e+01  6.5429093183180939e+01  6.5386657607322789e+01  6.5373171637274311e+01  6.5399888301082541e+01  6.5473227247011366e+01  6.5527799788154894e+01  6.5474585585496271e+01  6.5479893639313772e+01  6.5483487389952430e+01  6.5535744338708184e+01  6.5481645519678494e+01  6.5529590783672703e+01  6.5479638103907490e+01  6.5511554685888285e+01  6.5476183089120411e+01  6.5453576924608242e+01  6.5362655577959245e+01  6.5338275444696137e+01  6.5371388111271912e+01  6.5334663560484032e+01  6.5336816016370179e+01  6.5295755467329812e+01  6.5304196100185706e+01  6.5270003879151645e+01  6.5253500052509153e+01  6.5495409906474521e+01  6.5438983392916143e+01  6.5503758047166869e+01  6.5442452969740756e+01  6.5450657058019459e+01  6.5442128578758997e+01  6.5418566639697630e+01  6.5352446271242385e+01  6.5268468131508854e+01  6.5368219347979135e+01  6.5343372700557040e+01  6.5202803007963198e+01  6.5303606678632974e+01  6.5177628344393199e+01  6.5262778520665066e+01  6.5160848802608967e+01  6.5219052213123703e+01  6.5237079233502882e+01  6.5244815695394337e+01  6.5310484631548988e+01  6.5394521200782762e+01  6.5287132911543708e+01  6.5280774309725473e+01  6.5316240634210772e+01  6.5346281344862518e+01  6.5371804513777690e+01  6.5385742633672493e+01  6.5463506275372040e+01  6.5392741480545851e+01  6.5477821792490346e+01  6.5408811048118736e+01  6.5485752069559169e+01  6.5420382682195097e+01  6.5431182958182788e+01  6.5061409166013462e+01  6.5088766537043668e+01  6.5168675048289174e+01  6.5211145171068196e+01  6.5026017231396793e+01  6.5032030082783052e+01  6.5131308083975142e+01  6.5054263559074499e+01  6.5069893822326691e+01  6.4983971021201214e+01  6.5088340553678108e+01  6.5033425109021636e+01  6.4965801823952219e+01  6.4967372001636420e+01  6.5051549858141541e+01  6.4975086548047003e+01  6.4980161905817582e+01  6.4991530934064016e+01  6.4996424751752642e+01  6.5110911462928726e+01  6.5009022367273545e+01  6.5018367462057327e+01  6.5000981432529230e+01  6.4937360756196682e+01  6.5016761128090451e+01  6.4920341066352108e+01  6.4982073490313255e+01  6.4913073605247988e+01  6.4968784945010484e+01  6.4944457704076498e+01  6.4948474199727684e+01  6.4962797401382943e+01  6.5093422046270859e+01  6.5102929191714765e+01  6.5154969425215853e+01  6.4950772092910483e+01  6.5002575294965382e+01  6.5012661520712086e+01  6.5055386656451319e+01  6.5023403302046901e+01  6.5065929095998285e+01  6.5034456070746700e+01  6.5079351601302648e+01  6.5098690856535129e+01  6.5479204186976773e+01  6.5531348067910542e+01  6.5601356247262785e+01  6.5674644071431274e+01  6.5657407941620647e+01  6.5638218073560836e+01  6.5613930265730190e+01  6.5589554659979555e+01  6.5562637280193712e+01  6.5533381076561398e+01  6.5497518694893500e+01  6.5456163278019034e+01  6.5418891875731305e+01  6.5371774291721067e+01  6.5331078129442403e+01  6.5290057238598109e+01  6.5250729463470577e+01  6.5208039127141987e+01  6.5169461923161975e+01  6.5139602542028172e+01  6.5115135749650975e+01  6.5671079167035927e+01  6.5584642546077291e+01  6.5677376429115029e+01  6.5593932908789228e+01  6.5609642619812632e+01  6.5520859379895114e+01  6.5127279835236706e+01  6.5139190217563396e+01  6.5167898346061847e+01  6.5209729777768629e+01  6.5243824821895004e+01  6.5278333417584037e+01  6.5311113073218081e+01  6.5344714862100489e+01  6.5381489136378988e+01  6.5421623225218156e+01  6.5456446185590124e+01  6.5493047265675244e+01  6.5530020084556298e+01  6.5565580505427789e+01  6.5594073600352999e+01  6.5619982639598916e+01  6.5645427488499976e+01  6.5657817545937874e+01  6.5383189787432102e+01  6.5307868811624559e+01  6.5331152507965996e+01  6.5294103122815358e+01  6.5317107742240665e+01  6.5279445627959575e+01  6.5305705416160222e+01  6.5270779878407211e+01  6.5271556749646720e+01  6.5235655116625807e+01  6.5244319253881983e+01  6.5204124237204468e+01  6.5221156952172691e+01  6.5175592465441937e+01  6.5217060284562990e+01  6.5164937773119206e+01  6.5235595615788355e+01  6.5189644183097968e+01  6.5260201652940992e+01  6.5214401153488623e+01  6.5242175127527645e+01  6.5332686931776138e+01  6.5358100551051052e+01  6.5398329966687655e+01  6.5880937684276972e+01  6.5935747134651891e+01  6.6026638882983434e+01  6.6021412553084360e+01  6.6125038992707772e+01  6.6038867442126843e+01  6.6050262335891915e+01  6.5937156849144742e+01  6.5988266610401837e+01  6.5947402423506475e+01  6.5998347594911465e+01  6.6013112639985110e+01  6.6066196888341977e+01  6.6087566413579125e+01  6.6137032448636347e+01  6.6138926610915675e+01  6.5474213520087261e+01  6.5411478120134419e+01  6.5371620407861798e+01  6.5396215388320371e+01  6.5357736010426208e+01  6.5386839313216470e+01  6.5344066225063898e+01  6.5352023562062541e+01  6.5309848457222373e+01  6.5322812791522153e+01  6.5284063007598718e+01  6.5304452188665408e+01  6.5264656151952607e+01  6.5301825697374468e+01  6.5262236908291030e+01  6.5326087112285805e+01  6.5286378735597594e+01  6.5355643090085707e+01  6.5311482729948139e+01  6.5342458944744521e+01  6.5437269163015614e+01  6.5471589226963232e+01  6.5537915721507304e+01  6.5596321553915729e+01  6.6127766395874048e+01  6.6113628921634472e+01  6.6155628130591325e+01  6.6179862099086051e+01  6.6226476621621259e+01  6.6178021381585694e+01  6.6056175841530958e+01  6.6214999113334457e+01  6.6088651690560596e+01  6.6233847968900349e+01  6.6121976622321156e+01  6.6249244472583527e+01  6.6140472668039834e+01  6.6267574587622590e+01  6.6179836963567453e+01  6.6192924846598260e+01  6.6289206178980734e+01  6.5425413472065060e+01  6.5467921740451800e+01  6.5426110382731352e+01  6.5499925155553143e+01  6.5453612577261737e+01  6.5532174017431018e+01  6.5482560850665593e+01  6.5517320150360817e+01  6.6099116918504976e+01  6.5945319897463520e+01  6.6049128418159512e+01  6.5903791101538630e+01  6.5999603460657909e+01  6.5848590231366927e+01  6.5953200157996250e+01  6.5799674780361400e+01  6.5897949773064127e+01  6.5747015965244813e+01  6.5849228048146898e+01  6.5701693505297968e+01  6.5795384122245821e+01  6.5647002008414475e+01  6.5747182395933336e+01  6.5601886404548864e+01  6.5702370628447369e+01  6.5558450107448209e+01  6.5657029236605339e+01  6.5498991587626733e+01  6.5455692396021448e+01  6.5488194120486199e+01  6.5445793477164386e+01  6.5482947420362422e+01  6.5435030530835363e+01  6.5434382729232254e+01  6.5391280695574025e+01  6.5398354324787007e+01  6.5351062245811463e+01  6.5386967668020120e+01  6.5346946579766083e+01  6.5385940544992579e+01  6.5343307723247506e+01  6.5409669633592060e+01  6.5368614237214445e+01  6.5437011578867583e+01  6.5397259989716730e+01  6.5435587712419789e+01  6.5986339219179669e+01  6.6029823350234679e+01  6.6070181937138187e+01  6.6115509633863226e+01  6.6192354953583873e+01  6.6197973494153146e+01  6.6244282068581782e+01  6.6245548761621322e+01  6.6299469541950685e+01  6.6243748262324175e+01  6.6296944171079176e+01  6.6242949144856439e+01  6.6296552826901191e+01  6.6232521930115325e+01  6.6276436945768396e+01  6.6219123875092137e+01  6.6266026250789650e+01  6.6252491112312271e+01  6.6293688953373064e+01  6.6280429820383517e+01  6.6321471037146679e+01  6.6335104304211569e+01  6.6352279825964715e+01  6.6307612370285554e+01  6.6366108615140689e+01  6.6317394062607192e+01  6.6381285896175115e+01  6.6340839321699534e+01  6.6379217899562406e+01  6.6340704995649048e+01  6.6380959002780358e+01  6.6340241181776165e+01  6.6339626012444782e+01  6.6292281816130895e+01  6.6284970518116396e+01  6.6235022304154981e+01  6.6224901778122614e+01  6.6262361295668143e+01  6.6289229612338517e+01  6.6319845081501072e+01  6.6339102501379401e+01  6.6359568990762170e+01  6.6368537359914242e+01  6.6190632517852521e+01  6.6145488202900324e+01  6.6098183076750843e+01  6.6050597615073997e+01  6.5995818704567341e+01  6.5943469386712735e+01  6.5890502440924337e+01  6.5841236969165735e+01  6.5793069275690797e+01  6.5750358225159587e+01  6.5713920910544061e+01  6.6082668412991495e+01  6.6019789723736679e+01  6.5964039589756212e+01  6.5901725550435984e+01  6.5856592311464183e+01  6.5822967002759739e+01  6.5768597576542163e+01  6.5724699276499237e+01  6.5688777518578732e+01  6.5574011746155080e+01  6.6217881879519695e+01  6.6123951564616377e+01  6.6073447478456899e+01  6.6020662384262991e+01  6.5964788892204837e+01  6.5933214235009075e+01  6.5882182509398618e+01  6.5834921112314660e+01  6.5784789256486903e+01  6.5742711498175723e+01  6.5690722891260307e+01  6.6313283695550936e+01  6.6409648938137963e+01  6.6365582763126952e+01  6.6424978820653649e+01  6.6414597660225581e+01  6.6463411581968629e+01  6.6452180038153855e+01  6.6534896323641746e+01  6.6428418325020417e+01  6.6431226998410907e+01  6.6474963077666601e+01  6.6475060161676140e+01  6.6541484875583961e+01  6.6319596256600576e+01  6.6360485840850274e+01  6.6383832919981742e+01  6.6411276916602986e+01  6.6433062321128176e+01  6.6443215787650288e+01  6.6456307826000625e+01  6.6469478044622420e+01  6.5701540120443269e+01  6.5628872990018579e+01  6.5727320827639360e+01  6.5666082911066724e+01  6.5755705600979354e+01  6.5589938291888942e+01  6.5577412601778676e+01  6.5644021121294969e+01  6.5600269072719968e+01  6.5661526070817985e+01  6.5686327312173518e+01  6.5529693945387521e+01  6.5482437172923227e+01  6.5521794516057199e+01  6.5497044759641611e+01  6.5545681932755514e+01  6.5520544281852537e+01  6.5570739170397815e+01  6.5562895212818546e+01  6.5609639616253745e+01  6.5642369814441054e+01  6.5697460586810422e+01  6.5730158988479545e+01  6.5783631882064753e+01  6.5828152553344637e+01  6.5862504043920339e+01  6.5902065606893103e+01  6.5950771545800535e+01  6.6004845839591383e+01  6.6056514013055789e+01  6.6103213809937557e+01  6.6150105730818780e+01  6.6200308319855296e+01  6.6244231210196887e+01  6.6281651375583365e+01  6.5752560935938618e+01  6.5736543450654395e+01  6.5642928022511128e+01  6.6168266578995429e+01  6.6034638584215301e+01  6.5905468669948789e+01  6.5806112180378264e+01  6.6609234237060164e+01  6.6545490886147974e+01  6.6537572850409703e+01  6.6458708422623474e+01  6.6418860456444634e+01  6.6322922529322085e+01  6.6596028006301196e+01  6.6586082839348606e+01  6.6671460474562252e+01  6.6573499896159419e+01  6.6513062835460843e+01  6.6525924291968792e+01  6.6561994590462376e+01  6.6502243811479289e+01  6.6551352329503914e+01  6.6485289538392294e+01  6.6487833700381032e+01  6.6435074221142600e+01  6.6510564826857689e+01  6.6459759524445857e+01  6.6538278502266138e+01  6.6452524703092948e+01  6.6375422942819128e+01  6.6410276253050782e+01  6.6219967194211208e+01  6.6115637615527802e+01  6.6121868106788767e+01  6.5980640614156655e+01  6.6405449851395900e+01  6.6198643159896818e+01  6.6184152632179675e+01  6.6081191768890989e+01  6.6213377263304324e+01  6.6230555784856108e+01  6.6113818194153581e+01  6.6246847332214003e+01  6.6262277789688653e+01  6.6156983246799129e+01  6.5584182328781779e+01  6.5527724041856956e+01  6.5618980930928231e+01  6.5565802676273805e+01  6.5661766855165837e+01  6.5613948272941514e+01  6.5705449068110227e+01  6.5665517871360237e+01  6.5772442833502822e+01  6.5733313561096679e+01  6.5859761919576769e+01  6.5825649911777006e+01  6.5958589519729458e+01  6.5923008329901776e+01  6.6046357479938806e+01  6.6280127624449747e+01  6.6299094690412929e+01  6.6197473301529158e+01  6.6124487222026559e+01  6.6239596255791596e+01  6.6279929507382121e+01  6.5489173400475934e+01  6.5511956345644734e+01  6.5574204618296932e+01  6.5622862568882127e+01  6.5712670961878359e+01  6.5798329876381246e+01  6.5775323480146469e+01  6.5889629953278259e+01  6.5867039566268460e+01  6.6017196560079327e+01  6.5988169274335135e+01  6.6163988142504792e+01  6.6431046767049438e+01  6.6452070551680748e+01  6.6371227296985595e+01  6.6367110672293435e+01  6.6441373669547474e+01  6.6480017439611572e+01  6.6849284385935050e+01  6.6705338491772395e+01  6.6687401286919282e+01  6.6593479432815982e+01  6.6577670150755381e+01  6.6513323589877118e+01  6.6497075383662818e+01  6.6388622164336866e+01  6.6358643593498329e+01  6.6288516811068220e+01  6.6263326957545331e+01  6.6204570167473022e+01  6.6176504797026723e+01  6.6103858155448989e+01  6.6079072519764523e+01  6.6001131173509108e+01  6.5973462801603560e+01  6.6859023187979432e+01  6.6728953556896727e+01  6.6729583058203019e+01  6.6652026389524508e+01  6.6640916380385164e+01  6.6571887996625449e+01  6.6567938889684498e+01  6.6515690128809112e+01  6.6500565966944421e+01  6.6451909651630743e+01  6.6444885997794486e+01  6.6401530244565208e+01  6.6869949573493656e+01  6.6733915461868065e+01  6.6731255088228750e+01  6.6666971387546383e+01  6.6662359220344911e+01  6.6581114614933355e+01  6.6574753718235058e+01  6.6525073730100488e+01  6.6830517064404916e+01  6.6699598563017389e+01  6.6715552536714213e+01  6.6630952155077495e+01  6.6643399205623268e+01  6.6584868979734196e+01  6.6531354638574868e+01  6.6559235723498333e+01  6.6580156629846442e+01  6.6648262491035041e+01  6.6662451195471874e+01  6.6803605810377746e+01  6.6531260810818992e+01  6.6697798717637156e+01  6.6532149710578636e+01  6.6552048683921669e+01  6.6459542403709776e+01  6.6414272794998823e+01  6.6345761795500707e+01  6.6258425488446008e+01  6.6143831513065493e+01  6.6181895628082501e+01  6.6255771459080691e+01  6.6300898663890408e+01  6.6341638275391674e+01  6.6112690111829295e+01  6.6227935105176485e+01  6.6432546117414660e+01  6.6385915369144314e+01  6.6147741861152809e+01  6.6164298825672105e+01  6.6013411774083025e+01  6.6032666620422631e+01  6.5893727778701034e+01  6.5911873646296414e+01  6.5844649546043669e+01  6.5856591086176934e+01  6.5985427617383991e+01  6.5992742882409345e+01  6.613363480953009